 Gaussian 09, Revision A.02,
 Gaussian 09:  EM64L-G09RevA.02 11-Jun-2009

 ----------------------------------------------------------------------
 #P B3LYP/6-311++G** scf(conver=11) int=ultrafine polar=optrot cphf(rdf
 req,conver=11)
 ----------------------------------------------------------------------

 -----------------------------
 (R)-3-chloro-1-butene tau=120
 -----------------------------
 Symbolic Z-matrix:
 Charge =  0 Multiplicity = 1

                         Standard orientation:
 ---------------------------------------------------------------------
 Center     Atomic      Atomic             Coordinates (Angstroms)
 Number     Number       Type             X           Y           Z
 ---------------------------------------------------------------------
      1          6           0        0.464563    1.755542    0.039988
      2          6           0        0.013390    0.345286   -0.318985
      3          6           0       -1.199820   -0.097614    0.421177
      4          6           0       -2.334234   -0.501811   -0.149175
      5          1           0       -2.419324   -0.544431   -1.231565
      6          1           0        1.377554    2.021239   -0.496111
      7          1           0       -3.207969   -0.801889    0.417665
      8          1           0       -1.131719   -0.066263    1.506154
      9          1           0       -0.249027    0.319744   -1.384500
     10          1           0        0.677783    1.810342    1.110352
     11          1           0       -0.318774    2.480150   -0.199836
     12         17           0        1.388711   -0.836900    0.018813
 ---------------------------------------------------------------------

 SCF Done:  E(RB3LYP) =  -616.894006816     A.U. after   20 cycles

 The electronic state is 1-A.
 Alpha  occ. eigenvalues -- -101.53824 -10.24742 -10.19266 -10.18391 -10.18068
 Alpha  occ. eigenvalues --   -9.45250  -7.21696  -7.20738  -7.20720  -0.86931
 Alpha  occ. eigenvalues --   -0.78826  -0.74240  -0.64066  -0.57553  -0.48805
 Alpha  occ. eigenvalues --   -0.47211  -0.44715  -0.41626  -0.39996  -0.37666
 Alpha  occ. eigenvalues --   -0.36570  -0.30789  -0.30119  -0.28061
 Alpha virt. eigenvalues --   -0.03295  -0.00741   0.00632   0.00758   0.02231
 Alpha virt. eigenvalues --    0.02887   0.03849   0.04151   0.06383   0.06492
 Alpha virt. eigenvalues --    0.07295   0.08353   0.08718   0.09906   0.11082

 Mulliken atomic charges:
              1
     1  C   -0.672571
     2  C    0.175718
     3  C    0.111652
     4  C   -0.632729
     5  H    0.120625
     6  H    0.154345
     7  H    0.134731
     8  H    0.163323
     9  H    0.210626
    10  H    0.153300
    11  H    0.134787
    12  Cl  -0.053808
 Sum of Mulliken atomic charges =   0.00000

 Dipole moment (field-independent basis, Debye):
    X=             -1.6319    Y=              1.5120    Z=             -0.2872  Tot=              2.2431
 Quadrupole moment (field-independent basis, Debye-Ang):
   XX=            -39.1678   YY=            -39.9717   ZZ=            -37.4024
   XY=              2.2120   XZ=              0.1554   YZ=             -0.3310

 Normal termination of Gaussian 09 at Wed Jul 10 17:19:51 2013.
