 Gaussian 09, Revision A.02,
 Gaussian 09:  EM64L-G09RevA.02 11-Jun-2009

 ----------------------------------------------------------------------
 #P B3LYP/6-311++G** scf(conver=11) int=ultrafine polar=optrot cphf(rdf
 req,conver=11)
 ----------------------------------------------------------------------

 -----------------------------
 (R)-3-chloro-1-butene tau=120
 -----------------------------
 Symbolic Z-matrix:
 Charge =  0 Multiplicity = 1

                         Standard orientation:
 ---------------------------------------------------------------------
 Center     Atomic      Atomic             Coordinates (Angstroms)
 Number     Number       Type             X           Y           Z
 ---------------------------------------------------------------------
      1          6           0        0.491364    1.799158    0.050892
      2          6           0        0.003732    0.386667   -0.301070
      3          6           0       -1.236816   -0.097720    0.407043
      4          6           0       -2.378429   -0.504755   -0.157583
      5          1           0       -2.534496   -0.516997   -1.234156
      6          1           0        1.383870    2.044590   -0.528712
      7          1           0       -3.204901   -0.843786    0.461696
      8          1           0       -1.160373   -0.123583    1.493359
      9          1           0       -0.126809    0.306284   -1.379909
     10          1           0        0.722203    1.907296    1.113693
     11          1           0       -0.295552    2.515201   -0.208485
     12         17           0        1.408056   -0.869947    0.016872
 ---------------------------------------------------------------------

 SCF Done:  E(RB3LYP) =  -616.893441483     A.U. after   20 cycles

 The electronic state is 1-A.
 Alpha  occ. eigenvalues -- -101.53278 -10.25400 -10.19810 -10.18820 -10.18543
 Alpha  occ. eigenvalues --   -9.44636  -7.21080  -7.20133  -7.20120  -0.85577
 Alpha  occ. eigenvalues --   -0.78415  -0.74395  -0.64316  -0.57554  -0.48254
 Alpha  occ. eigenvalues --   -0.47593  -0.44348  -0.41556  -0.40508  -0.37100
 Alpha  occ. eigenvalues --   -0.36572  -0.30511  -0.29749  -0.28136
 Alpha virt. eigenvalues --   -0.04217  -0.00821   0.00430   0.00782   0.01668
 Alpha virt. eigenvalues --    0.02726   0.03800   0.03981   0.06310   0.06430
 Alpha virt. eigenvalues --    0.07106   0.08372   0.08677   0.09679   0.10993

 Mulliken atomic charges:
              1
     1  C   -0.655765
     2  C    0.148127
     3  C    0.093121
     4  C   -0.608002
     5  H    0.130836
     6  H    0.157963
     7  H    0.131496
     8  H    0.162435
     9  H    0.213027
    10  H    0.157935
    11  H    0.137111
    12  Cl  -0.068285
 Sum of Mulliken atomic charges =   0.00000

 Dipole moment (field-independent basis, Debye):
    X=             -1.8426    Y=              1.7196    Z=             -0.3372  Tot=              2.5428
 Quadrupole moment (field-independent basis, Debye-Ang):
   XX=            -39.3790   YY=            -39.8343   ZZ=            -37.2650
   XY=              2.7082   XZ=              0.0781   YZ=             -0.3687

 Normal termination of Gaussian 09 at Wed Jul 10 17:48:43 2013.
