 Gaussian 09, Revision A.02,
 Gaussian 09:  EM64L-G09RevA.02 11-Jun-2009

 ----------------------------------------------------------------------
 #P B3LYP/6-311++G** scf(conver=11) int=ultrafine polar=optrot cphf(rdf
 req,conver=11)
 ----------------------------------------------------------------------

 -----------------------------
 (R)-3-chloro-1-butene tau=120
 -----------------------------
 Symbolic Z-matrix:
 Charge =  0 Multiplicity = 1

                         Standard orientation:
 ---------------------------------------------------------------------
 Center     Atomic      Atomic             Coordinates (Angstroms)
 Number     Number       Type             X           Y           Z
 ---------------------------------------------------------------------
      1          6           0        0.480061    1.754924    0.026870
      2          6           0       -0.012075    0.348870   -0.306318
      3          6           0       -1.197058   -0.092991    0.409218
      4          6           0       -2.336934   -0.496826   -0.142619
      5          1           0       -2.394295   -0.544768   -1.227122
      6          1           0        1.382440    2.057039   -0.505851
      7          1           0       -3.217911   -0.788157    0.416145
      8          1           0       -1.074357   -0.037328    1.488717
      9          1           0       -0.159317    0.198627   -1.375385
     10          1           0        0.652550    1.825938    1.104555
     11          1           0       -0.336480    2.447290   -0.206726
     12         17           0        1.384906   -0.837794    0.022516
 ---------------------------------------------------------------------

 SCF Done:  E(RB3LYP) =  -616.892874422     A.U. after   20 cycles

 The electronic state is 1-A.
 Alpha  occ. eigenvalues -- -101.53200 -10.24531 -10.19262 -10.18687 -10.18341
 Alpha  occ. eigenvalues --   -9.44649  -7.21078  -7.20143  -7.20127  -0.87020
 Alpha  occ. eigenvalues --   -0.78910  -0.74229  -0.64676  -0.57831  -0.49007
 Alpha  occ. eigenvalues --   -0.47524  -0.44633  -0.42051  -0.40319  -0.37181
 Alpha  occ. eigenvalues --   -0.36956  -0.30556  -0.29680  -0.28159
 Alpha virt. eigenvalues --   -0.03734  -0.00749   0.00603   0.00756   0.02308
 Alpha virt. eigenvalues --    0.02871   0.03790   0.04194   0.06366   0.06515
 Alpha virt. eigenvalues --    0.07272   0.08304   0.08840   0.09820   0.11090

 Mulliken atomic charges:
              1
     1  C   -0.668767
     2  C    0.165722
     3  C    0.125371
     4  C   -0.636980
     5  H    0.121078
     6  H    0.156723
     7  H    0.140335
     8  H    0.156409
     9  H    0.207868
    10  H    0.156948
    11  H    0.134066
    12  Cl  -0.058774
 Sum of Mulliken atomic charges =   0.00000

 Dipole moment (field-independent basis, Debye):
    X=             -1.7887    Y=              1.6025    Z=             -0.3258  Tot=              2.4236
 Quadrupole moment (field-independent basis, Debye-Ang):
   XX=            -39.1127   YY=            -39.9835   ZZ=            -37.4381
   XY=              2.5852   XZ=             -0.0271   YZ=             -0.0953

 Normal termination of Gaussian 09 at Wed Jul 10 17:20:06 2013.
