 Gaussian 09, Revision A.02,
 Gaussian 09:  EM64L-G09RevA.02 11-Jun-2009

 ----------------------------------------------------------------------
 #P B3LYP/6-311++G** scf(conver=11) int=ultrafine polar=optrot cphf(rdf
 req,conver=11)
 ----------------------------------------------------------------------

 -----------------------------
 (R)-3-chloro-1-butene tau=120
 -----------------------------
 Symbolic Z-matrix:
 Charge =  0 Multiplicity = 1

                         Standard orientation:
 ---------------------------------------------------------------------
 Center     Atomic      Atomic             Coordinates (Angstroms)
 Number     Number       Type             X           Y           Z
 ---------------------------------------------------------------------
      1          6           0        0.467174    1.755679    0.042128
      2          6           0       -0.003230    0.340246   -0.319940
      3          6           0       -1.212539   -0.102771    0.417889
      4          6           0       -2.326505   -0.499898   -0.161694
      5          1           0       -2.389991   -0.537033   -1.243772
      6          1           0        1.380566    2.040356   -0.482933
      7          1           0       -3.182623   -0.792283    0.432962
      8          1           0       -1.167118   -0.081671    1.503703
      9          1           0       -0.097482    0.333112   -1.410336
     10          1           0        0.657346    1.817445    1.116615
     11          1           0       -0.325682    2.475688   -0.185930
     12         17           0        1.386799   -0.836185    0.023494
 ---------------------------------------------------------------------

 SCF Done:  E(RB3LYP) =  -616.893745561     A.U. after   19 cycles

 The electronic state is 1-A.
 Alpha  occ. eigenvalues -- -101.53433 -10.24808 -10.19202 -10.18199 -10.18048
 Alpha  occ. eigenvalues --   -9.44872  -7.21309  -7.20364  -7.20347  -0.86750
 Alpha  occ. eigenvalues --   -0.79031  -0.74181  -0.63911  -0.57747  -0.48679
 Alpha  occ. eigenvalues --   -0.47883  -0.44486  -0.41380  -0.40124  -0.37312
 Alpha  occ. eigenvalues --   -0.36881  -0.30737  -0.29712  -0.28292
 Alpha virt. eigenvalues --   -0.03180  -0.00750   0.00609   0.00702   0.02281
 Alpha virt. eigenvalues --    0.02865   0.03859   0.04146   0.06318   0.06448
 Alpha virt. eigenvalues --    0.07287   0.08343   0.08755   0.09890   0.11081

 Mulliken atomic charges:
              1
     1  C   -0.667199
     2  C    0.167837
     3  C    0.094108
     4  C   -0.622447
     5  H    0.123050
     6  H    0.155244
     7  H    0.131180
     8  H    0.164835
     9  H    0.225959
    10  H    0.153009
    11  H    0.135702
    12  Cl  -0.061278
 Sum of Mulliken atomic charges =   0.00000

 Dipole moment (field-independent basis, Debye):
    X=             -1.7192    Y=              1.5538    Z=             -0.3125  Tot=              2.3383
 Quadrupole moment (field-independent basis, Debye-Ang):
   XX=            -39.3523   YY=            -40.0797   ZZ=            -37.1365
   XY=              2.3214   XZ=             -0.2222   YZ=             -0.3714

 Normal termination of Gaussian 09 at Wed Jul 10 17:19:51 2013.
