 Gaussian 09, Revision A.02,
 Gaussian 09:  EM64L-G09RevA.02 11-Jun-2009

 ----------------------------------------------------------------------
 #P B3LYP/6-311++G** scf(conver=11) int=ultrafine polar=optrot cphf(rdf
 req,conver=11)
 ----------------------------------------------------------------------

 -----------------------------
 (R)-3-chloro-1-butene tau=120
 -----------------------------
 Symbolic Z-matrix:
 Charge =  0 Multiplicity = 1

                         Standard orientation:
 ---------------------------------------------------------------------
 Center     Atomic      Atomic             Coordinates (Angstroms)
 Number     Number       Type             X           Y           Z
 ---------------------------------------------------------------------
      1          6           0        0.430486    1.730589    0.002484
      2          6           0       -0.009411    0.312143   -0.324690
      3          6           0       -1.250369   -0.066816    0.426299
      4          6           0       -2.349099   -0.548800   -0.154419
      5          1           0       -2.380460   -0.777174   -1.225954
      6          1           0        1.358444    1.984304   -0.513689
      7          1           0       -3.254581   -0.734184    0.423206
      8          1           0       -1.245177    0.144971    1.504380
      9          1           0       -0.158009    0.175809   -1.394931
     10          1           0        0.591084    1.842285    1.078038
     11          1           0       -0.348629    2.435427   -0.306207
     12         17           0        1.441629   -0.802008    0.043360
 ---------------------------------------------------------------------

 SCF Done:  E(RB3LYP) =  -616.894387390     A.U. after   17 cycles

 The electronic state is 1-A.
 Alpha  occ. eigenvalues -- -101.53341 -10.24818 -10.19742 -10.18873 -10.18041
 Alpha  occ. eigenvalues --   -9.44762  -7.21200  -7.20255  -7.20238  -0.86433
 Alpha  occ. eigenvalues --   -0.78846  -0.74143  -0.63894  -0.57703  -0.48515
 Alpha  occ. eigenvalues --   -0.47582  -0.44634  -0.41167  -0.40170  -0.37596
 Alpha  occ. eigenvalues --   -0.36776  -0.30342  -0.29745  -0.28391
 Alpha virt. eigenvalues --   -0.03763  -0.00805   0.00572   0.00675   0.02100
 Alpha virt. eigenvalues --    0.02954   0.03888   0.04032   0.06358   0.06483
 Alpha virt. eigenvalues --    0.07319   0.08271   0.08783   0.09743   0.11099

 Mulliken atomic charges:
              1
     1  C   -0.686267
     2  C    0.210301
     3  C    0.074368
     4  C   -0.618146
     5  H    0.128164
     6  H    0.153438
     7  H    0.134008
     8  H    0.166350
     9  H    0.221408
    10  H    0.152767
    11  H    0.133950
    12  Cl  -0.070341
 Sum of Mulliken atomic charges =   0.00000

 Dipole moment (field-independent basis, Debye):
    X=             -1.8914    Y=              1.5305    Z=             -0.3822  Tot=              2.4629
 Quadrupole moment (field-independent basis, Debye-Ang):
   XX=            -39.2199   YY=            -40.1660   ZZ=            -37.2527
   XY=              2.3246   XZ=             -0.1745   YZ=              0.3763

 Normal termination of Gaussian 09 at Wed Jul 10 17:47:31 2013.
