 Gaussian 09, Revision A.02,
 Gaussian 09:  EM64L-G09RevA.02 11-Jun-2009

 ----------------------------------------------------------------------
 #P B3LYP/6-311++G** scf(conver=11) int=ultrafine polar=optrot cphf(rdf
 req,conver=11)
 ----------------------------------------------------------------------

 -----------------------------
 (R)-3-chloro-1-butene tau=120
 -----------------------------
 Symbolic Z-matrix:
 Charge =  0 Multiplicity = 1

                         Standard orientation:
 ---------------------------------------------------------------------
 Center     Atomic      Atomic             Coordinates (Angstroms)
 Number     Number       Type             X           Y           Z
 ---------------------------------------------------------------------
      1          6           0        0.469025    1.753332    0.031810
      2          6           0        0.003045    0.344302   -0.320104
      3          6           0       -1.206922   -0.096623    0.439644
      4          6           0       -2.336802   -0.498226   -0.160009
      5          1           0       -2.471244   -0.563375   -1.236117
      6          1           0        1.380262    2.027535   -0.502678
      7          1           0       -3.193113   -0.786931    0.440324
      8          1           0       -1.039717   -0.026525    1.516697
      9          1           0       -0.148090    0.298226   -1.398895
     10          1           0        0.676473    1.823898    1.102721
     11          1           0       -0.318868    2.475864   -0.202817
     12         17           0        1.384954   -0.839142    0.019571
 ---------------------------------------------------------------------

 SCF Done:  E(RB3LYP) =  -616.893878626     A.U. after   18 cycles

 The electronic state is 1-A.
 Alpha  occ. eigenvalues -- -101.53474 -10.24565 -10.19774 -10.18741 -10.18043
 Alpha  occ. eigenvalues --   -9.44914  -7.21348  -7.20407  -7.20388  -0.86734
 Alpha  occ. eigenvalues --   -0.78560  -0.74114  -0.64030  -0.57894  -0.48579
 Alpha  occ. eigenvalues --   -0.47421  -0.44469  -0.41657  -0.40423  -0.37454
 Alpha  occ. eigenvalues --   -0.36502  -0.30635  -0.29832  -0.27998
 Alpha virt. eigenvalues --   -0.03453  -0.00761   0.00603   0.00767   0.02107
 Alpha virt. eigenvalues --    0.02856   0.03878   0.04071   0.06363   0.06541
 Alpha virt. eigenvalues --    0.07278   0.08308   0.08807   0.09914   0.11051

 Mulliken atomic charges:
              1
     1  C   -0.674890
     2  C    0.179006
     3  C    0.105835
     4  C   -0.646650
     5  H    0.132518
     6  H    0.155027
     7  H    0.134448
     8  H    0.166463
     9  H    0.219925
    10  H    0.152504
    11  H    0.135674
    12  Cl  -0.059858
 Sum of Mulliken atomic charges =   0.00000

 Dipole moment (field-independent basis, Debye):
    X=             -1.6938    Y=              1.5574    Z=             -0.3434  Tot=              2.3265
 Quadrupole moment (field-independent basis, Debye-Ang):
   XX=            -39.3579   YY=            -40.1233   ZZ=            -37.1532
   XY=              2.3442   XZ=              0.2774   YZ=             -0.1774

 Normal termination of Gaussian 09 at Wed Jul 10 17:18:58 2013.
