 Gaussian 09, Revision A.02,
 Gaussian 09:  EM64L-G09RevA.02 11-Jun-2009

 ----------------------------------------------------------------------
 #P B3LYP/6-311++G** scf(conver=11) int=ultrafine polar=optrot cphf(rdf
 req,conver=11)
 ----------------------------------------------------------------------

 -----------------------------
 (R)-3-chloro-1-butene tau=120
 -----------------------------
 Symbolic Z-matrix:
 Charge =  0 Multiplicity = 1

                         Standard orientation:
 ---------------------------------------------------------------------
 Center     Atomic      Atomic             Coordinates (Angstroms)
 Number     Number       Type             X           Y           Z
 ---------------------------------------------------------------------
      1          6           0        0.473128    1.752453    0.036963
      2          6           0        0.005431    0.353990   -0.323958
      3          6           0       -1.209863   -0.084696    0.428509
      4          6           0       -2.330079   -0.498443   -0.158963
      5          1           0       -2.426930   -0.601119   -1.236336
      6          1           0        1.376351    2.040501   -0.503143
      7          1           0       -3.205234   -0.734551    0.438132
      8          1           0       -1.107317   -0.156457    1.514326
      9          1           0       -0.169863    0.263021   -1.395628
     10          1           0        0.664440    1.823714    1.110112
     11          1           0       -0.327753    2.456254   -0.211327
     12         17           0        1.386153   -0.837129    0.022856
 ---------------------------------------------------------------------

 SCF Done:  E(RB3LYP) =  -616.894417300     A.U. after   19 cycles

 The electronic state is 1-A.
 Alpha  occ. eigenvalues -- -101.53384 -10.24738 -10.19477 -10.18483 -10.18095
 Alpha  occ. eigenvalues --   -9.44823  -7.21255  -7.20317  -7.20299  -0.86716
 Alpha  occ. eigenvalues --   -0.78712  -0.74306  -0.63961  -0.57697  -0.48524
 Alpha  occ. eigenvalues --   -0.47664  -0.44526  -0.41738  -0.40285  -0.37346
 Alpha  occ. eigenvalues --   -0.36726  -0.30700  -0.29842  -0.27957
 Alpha virt. eigenvalues --   -0.03345  -0.00724   0.00630   0.00720   0.02012
 Alpha virt. eigenvalues --    0.02761   0.03915   0.04082   0.06195   0.06480
 Alpha virt. eigenvalues --    0.07433   0.08279   0.08832   0.09926   0.11091

 Mulliken atomic charges:
              1
     1  C   -0.660849
     2  C    0.182228
     3  C    0.073226
     4  C   -0.612734
     5  H    0.124510
     6  H    0.153644
     7  H    0.133934
     8  H    0.161624
     9  H    0.218799
    10  H    0.157615
    11  H    0.133372
    12  Cl  -0.065370
 Sum of Mulliken atomic charges =   0.00000

 Dipole moment (field-independent basis, Debye):
    X=             -1.7126    Y=              1.5129    Z=             -0.3297  Tot=              2.3088
 Quadrupole moment (field-independent basis, Debye-Ang):
   XX=            -39.4221   YY=            -40.0794   ZZ=            -37.1447
   XY=              2.4418   XZ=              0.0791   YZ=             -0.2427

 Normal termination of Gaussian 09 at Wed Jul 10 17:19:24 2013.
