 Gaussian 09, Revision A.02,
 Gaussian 09:  EM64L-G09RevA.02 11-Jun-2009

 ----------------------------------------------------------------------
 #P B3LYP/6-311++G** scf(conver=11) int=ultrafine polar=optrot cphf(rdf
 req,conver=11)
 ----------------------------------------------------------------------

 -----------------------------
 (R)-3-chloro-1-butene tau=120
 -----------------------------
 Symbolic Z-matrix:
 Charge =  0 Multiplicity = 1

                         Standard orientation:
 ---------------------------------------------------------------------
 Center     Atomic      Atomic             Coordinates (Angstroms)
 Number     Number       Type             X           Y           Z
 ---------------------------------------------------------------------
      1          6           0        0.468282    1.766643    0.026899
      2          6           0        0.004447    0.339361   -0.321037
      3          6           0       -1.203804   -0.094115    0.426713
      4          6           0       -2.326292   -0.491251   -0.163174
      5          1           0       -2.470922   -0.568932   -1.236969
      6          1           0        1.392718    2.031582   -0.489986
      7          1           0       -3.156655   -0.792270    0.468306
      8          1           0       -1.164584   -0.058119    1.513276
      9          1           0       -0.176508    0.196383   -1.386570
     10          1           0        0.670976    1.791069    1.102503
     11          1           0       -0.301270    2.513573   -0.192390
     12         17           0        1.385321   -0.837477    0.023849
 ---------------------------------------------------------------------

 SCF Done:  E(RB3LYP) =  -616.894291281     A.U. after   19 cycles

 The electronic state is 1-A.
 Alpha  occ. eigenvalues -- -101.53492 -10.24722 -10.19292 -10.18360 -10.18252
 Alpha  occ. eigenvalues --   -9.44940  -7.21376  -7.20428  -7.20415  -0.86812
 Alpha  occ. eigenvalues --   -0.78838  -0.73944  -0.64146  -0.57664  -0.48490
 Alpha  occ. eigenvalues --   -0.47613  -0.44155  -0.41756  -0.40275  -0.37462
 Alpha  occ. eigenvalues --   -0.36810  -0.30559  -0.29895  -0.28116
 Alpha virt. eigenvalues --   -0.03248  -0.00727   0.00618   0.00737   0.02225
 Alpha virt. eigenvalues --    0.02830   0.03902   0.04106   0.06480   0.06491
 Alpha virt. eigenvalues --    0.07206   0.08340   0.08817   0.09892   0.11079

 Mulliken atomic charges:
              1
     1  C   -0.678517
     2  C    0.163839
     3  C    0.103746
     4  C   -0.618331
     5  H    0.130883
     6  H    0.154882
     7  H    0.128030
     8  H    0.166440
     9  H    0.214052
    10  H    0.156167
    11  H    0.134961
    12  Cl  -0.056151
 Sum of Mulliken atomic charges =   0.00000

 Dipole moment (field-independent basis, Debye):
    X=             -1.6882    Y=              1.5091    Z=             -0.3132  Tot=              2.2859
 Quadrupole moment (field-independent basis, Debye-Ang):
   XX=            -39.4711   YY=            -39.9531   ZZ=            -37.1694
   XY=              2.3378   XZ=              0.0634   YZ=             -0.1120

 Normal termination of Gaussian 09 at Wed Jul 10 17:19:08 2013.
