 Gaussian 09, Revision A.02,
 Gaussian 09:  EM64L-G09RevA.02 11-Jun-2009

 ----------------------------------------------------------------------
 #P B3LYP/6-311++G** scf(conver=11) int=ultrafine polar=optrot cphf(rdf
 req,conver=11)
 ----------------------------------------------------------------------

 -----------------------------
 (R)-3-chloro-1-butene tau=120
 -----------------------------
 Symbolic Z-matrix:
 Charge =  0 Multiplicity = 1

                         Standard orientation:
 ---------------------------------------------------------------------
 Center     Atomic      Atomic             Coordinates (Angstroms)
 Number     Number       Type             X           Y           Z
 ---------------------------------------------------------------------
      1          6           0        0.513543    1.774444    0.075913
      2          6           0        0.023535    0.387224   -0.322713
      3          6           0       -1.162784   -0.124332    0.425322
      4          6           0       -2.316399   -0.441529   -0.154551
      5          1           0       -2.469784   -0.319103   -1.232845
      6          1           0        1.395515    2.055572   -0.504553
      7          1           0       -3.147910   -0.836773    0.428031
      8          1           0       -1.020225   -0.266372    1.504836
      9          1           0       -0.150077    0.338267   -1.397605
     10          1           0        0.766225    1.817486    1.138179
     11          1           0       -0.281360    2.501018   -0.122514
     12         17           0        1.327073   -0.874408    0.002509
 ---------------------------------------------------------------------

 SCF Done:  E(RB3LYP) =  -616.894279762     A.U. after   20 cycles

 The electronic state is 1-A.
 Alpha  occ. eigenvalues -- -101.53478 -10.24751 -10.19319 -10.18278 -10.18240
 Alpha  occ. eigenvalues --   -9.44944  -7.21375  -7.20432  -7.20419  -0.87075
 Alpha  occ. eigenvalues --   -0.78430  -0.74304  -0.63911  -0.57533  -0.48430
 Alpha  occ. eigenvalues --   -0.47494  -0.44363  -0.42055  -0.40329  -0.37460
 Alpha  occ. eigenvalues --   -0.36433  -0.30873  -0.29983  -0.27657
 Alpha virt. eigenvalues --   -0.02833  -0.00697   0.00634   0.00748   0.02136
 Alpha virt. eigenvalues --    0.02689   0.03840   0.04169   0.06271   0.06494
 Alpha virt. eigenvalues --    0.07188   0.08347   0.08753   0.09985   0.11040

 Mulliken atomic charges:
              1
     1  C   -0.669655
     2  C    0.140318
     3  C    0.112921
     4  C   -0.630509
     5  H    0.124840
     6  H    0.154725
     7  H    0.132255
     8  H    0.166315
     9  H    0.221412
    10  H    0.157795
    11  H    0.137099
    12  Cl  -0.047513
 Sum of Mulliken atomic charges =   0.00000

 Dipole moment (field-independent basis, Debye):
    X=             -1.4913    Y=              1.6169    Z=             -0.2872  Tot=              2.2183
 Quadrupole moment (field-independent basis, Debye-Ang):
   XX=            -39.6959   YY=            -39.8608   ZZ=            -37.1688
   XY=              2.3518   XZ=              0.2636   YZ=             -0.7744

 Normal termination of Gaussian 09 at Wed Jul 10 17:47:48 2013.
