 Gaussian 09, Revision A.02,
 Gaussian 09:  EM64L-G09RevA.02 11-Jun-2009

 ----------------------------------------------------------------------
 #P B3LYP/6-311++G** scf(conver=11) int=ultrafine polar=optrot cphf(rdf
 req,conver=11)
 ----------------------------------------------------------------------

 -----------------------------
 (R)-3-chloro-1-butene tau=120
 -----------------------------
 Symbolic Z-matrix:
 Charge =  0 Multiplicity = 1

                         Standard orientation:
 ---------------------------------------------------------------------
 Center     Atomic      Atomic             Coordinates (Angstroms)
 Number     Number       Type             X           Y           Z
 ---------------------------------------------------------------------
      1          6           0        0.467323    1.755472    0.025383
      2          6           0        0.008448    0.349984   -0.329884
      3          6           0       -1.207136   -0.097147    0.426052
      4          6           0       -2.331993   -0.503530   -0.156743
      5          1           0       -2.417328   -0.559854   -1.237477
      6          1           0        1.393200    1.974594   -0.508349
      7          1           0       -3.191764   -0.790650    0.437146
      8          1           0       -1.128164   -0.054021    1.509804
      9          1           0       -0.163511    0.242359   -1.400933
     10          1           0        0.646299    1.885112    1.098111
     11          1           0       -0.352818    2.459792   -0.161234
     12         17           0        1.387896   -0.834471    0.027887
 ---------------------------------------------------------------------

 SCF Done:  E(RB3LYP) =  -616.893986624     A.U. after   19 cycles

 The electronic state is 1-A.
 Alpha  occ. eigenvalues -- -101.53430 -10.24778 -10.19378 -10.18380 -10.18199
 Alpha  occ. eigenvalues --   -9.44872  -7.21306  -7.20364  -7.20348  -0.86737
 Alpha  occ. eigenvalues --   -0.78701  -0.74259  -0.63936  -0.57789  -0.48545
 Alpha  occ. eigenvalues --   -0.47561  -0.44611  -0.41729  -0.40390  -0.37110
 Alpha  occ. eigenvalues --   -0.36821  -0.30592  -0.29892  -0.28049
 Alpha virt. eigenvalues --   -0.03216  -0.00744   0.00605   0.00749   0.02173
 Alpha virt. eigenvalues --    0.02809   0.03856   0.04128   0.06288   0.06490
 Alpha virt. eigenvalues --    0.07217   0.08324   0.08761   0.09892   0.11119

 Mulliken atomic charges:
              1
     1  C   -0.691367
     2  C    0.181431
     3  C    0.094542
     4  C   -0.621850
     5  H    0.124452
     6  H    0.150904
     7  H    0.132760
     8  H    0.165099
     9  H    0.222530
    10  H    0.163362
    11  H    0.136789
    12  Cl  -0.058652
 Sum of Mulliken atomic charges =   0.00000

 Dipole moment (field-independent basis, Debye):
    X=             -1.7052    Y=              1.5636    Z=             -0.2868  Tot=              2.3312
 Quadrupole moment (field-independent basis, Debye-Ang):
   XX=            -39.4033   YY=            -40.1040   ZZ=            -37.1980
   XY=              2.2644   XZ=             -0.0596   YZ=              0.0836

 Normal termination of Gaussian 09 at Wed Jul 10 17:28:07 2013.
