 Gaussian 09, Revision A.02,
 Gaussian 09:  EM64L-G09RevA.02 11-Jun-2009

 ----------------------------------------------------------------------
 #P B3LYP/6-311++G** scf(conver=11) int=ultrafine polar=optrot cphf(rdf
 req,conver=11)
 ----------------------------------------------------------------------

 -----------------------------
 (R)-3-chloro-1-butene tau=120
 -----------------------------
 Symbolic Z-matrix:
 Charge =  0 Multiplicity = 1

                         Standard orientation:
 ---------------------------------------------------------------------
 Center     Atomic      Atomic             Coordinates (Angstroms)
 Number     Number       Type             X           Y           Z
 ---------------------------------------------------------------------
      1          6           0        0.430978    1.752543    0.047128
      2          6           0       -0.040730    0.371567   -0.349619
      3          6           0       -1.208140   -0.096141    0.443945
      4          6           0       -2.312925   -0.532142   -0.151570
      5          1           0       -2.393296   -0.511272   -1.236438
      6          1           0        1.344476    2.033944   -0.478731
      7          1           0       -3.162945   -0.926977    0.399290
      8          1           0       -1.087606   -0.112088    1.525300
      9          1           0       -0.208618    0.256481   -1.419452
     10          1           0        0.633728    1.769022    1.121802
     11          1           0       -0.345898    2.495057   -0.168597
     12         17           0        1.412062   -0.822302    0.018677
 ---------------------------------------------------------------------

 SCF Done:  E(RB3LYP) =  -616.893783435     A.U. after   19 cycles

 The electronic state is 1-A.
 Alpha  occ. eigenvalues -- -101.53085 -10.25075 -10.19521 -10.18617 -10.18164
 Alpha  occ. eigenvalues --   -9.44461  -7.20894  -7.19964  -7.19945  -0.86166
 Alpha  occ. eigenvalues --   -0.78637  -0.74367  -0.63999  -0.58083  -0.48701
 Alpha  occ. eigenvalues --   -0.47691  -0.44414  -0.41699  -0.40251  -0.37561
 Alpha  occ. eigenvalues --   -0.36350  -0.30509  -0.29735  -0.28136
 Alpha virt. eigenvalues --   -0.04184  -0.00736   0.00511   0.00675   0.01627
 Alpha virt. eigenvalues --    0.02757   0.03805   0.04160   0.06388   0.06499
 Alpha virt. eigenvalues --    0.07170   0.08243   0.08828   0.09791   0.11075

 Mulliken atomic charges:
              1
     1  C   -0.680771
     2  C    0.254408
     3  C    0.047777
     4  C   -0.606211
     5  H    0.122212
     6  H    0.155162
     7  H    0.137982
     8  H    0.166085
     9  H    0.222407
    10  H    0.158886
    11  H    0.134203
    12  Cl  -0.112141
 Sum of Mulliken atomic charges =   0.00000

 Dipole moment (field-independent basis, Debye):
    X=             -1.9215    Y=              1.6022    Z=             -0.3209  Tot=              2.5224
 Quadrupole moment (field-independent basis, Debye-Ang):
   XX=            -39.7464   YY=            -39.9521   ZZ=            -37.0519
   XY=              2.6445   XZ=              0.1888   YZ=             -0.3939

 Normal termination of Gaussian 09 at Wed Jul 10 17:49:03 2013.
