 Gaussian 09, Revision A.02,
 Gaussian 09:  EM64L-G09RevA.02 11-Jun-2009

 ----------------------------------------------------------------------
 #P B3LYP/6-311++G** scf(conver=11) int=ultrafine polar=optrot cphf(rdf
 req,conver=11)
 ----------------------------------------------------------------------

 -----------------------------
 (R)-3-chloro-1-butene tau=120
 -----------------------------
 Symbolic Z-matrix:
 Charge =  0 Multiplicity = 1

                         Standard orientation:
 ---------------------------------------------------------------------
 Center     Atomic      Atomic             Coordinates (Angstroms)
 Number     Number       Type             X           Y           Z
 ---------------------------------------------------------------------
      1          6           0        0.506193    1.754816    0.032456
      2          6           0        0.051515    0.327554   -0.298619
      3          6           0       -1.203460   -0.098051    0.410219
      4          6           0       -2.351566   -0.463981   -0.160001
      5          1           0       -2.464953   -0.591627   -1.234555
      6          1           0        1.401497    2.008918   -0.539049
      7          1           0       -3.230143   -0.650663    0.454455
      8          1           0       -1.167841   -0.009384    1.496129
      9          1           0       -0.102668    0.257665   -1.375998
     10          1           0        0.719085    1.893362    1.096431
     11          1           0       -0.294461    2.443605   -0.257748
     12         17           0        1.360199   -0.851406    0.026824
 ---------------------------------------------------------------------

 SCF Done:  E(RB3LYP) =  -616.893586802     A.U. after   18 cycles

 The electronic state is 1-A.
 Alpha  occ. eigenvalues -- -101.53685 -10.24466 -10.19338 -10.18355 -10.18173
 Alpha  occ. eigenvalues --   -9.45214  -7.21645  -7.20694  -7.20680  -0.87612
 Alpha  occ. eigenvalues --   -0.78661  -0.74052  -0.63897  -0.57460  -0.48424
 Alpha  occ. eigenvalues --   -0.47526  -0.44623  -0.41680  -0.40318  -0.37795
 Alpha  occ. eigenvalues --   -0.36692  -0.30639  -0.29853  -0.27918
 Alpha virt. eigenvalues --   -0.02598  -0.00796   0.00694   0.00781   0.02633
 Alpha virt. eigenvalues --    0.03074   0.03926   0.04066   0.06359   0.06476
 Alpha virt. eigenvalues --    0.07355   0.08368   0.08689   0.10084   0.11083

 Mulliken atomic charges:
              1
     1  C   -0.672566
     2  C    0.079880
     3  C    0.138286
     4  C   -0.625629
     5  H    0.127848
     6  H    0.152828
     7  H    0.128357
     8  H    0.161937
     9  H    0.222116
    10  H    0.152476
    11  H    0.136920
    12  Cl  -0.002453
 Sum of Mulliken atomic charges =   0.00000

 Dipole moment (field-independent basis, Debye):
    X=             -1.4915    Y=              1.5386    Z=             -0.3427  Tot=              2.1701
 Quadrupole moment (field-independent basis, Debye-Ang):
   XX=            -39.1429   YY=            -40.1335   ZZ=            -37.2500
   XY=              2.0805   XZ=             -0.0688   YZ=              0.0218

 Normal termination of Gaussian 09 at Wed Jul 10 17:47:43 2013.
