 Gaussian 09, Revision A.02,
 Gaussian 09:  EM64L-G09RevA.02 11-Jun-2009

 ----------------------------------------------------------------------
 #P B3LYP/6-311++G** scf(conver=11) int=ultrafine polar=optrot cphf(rdf
 req,conver=11)
 ----------------------------------------------------------------------

 -----------------------------
 (R)-3-chloro-1-butene tau=120
 -----------------------------
 Symbolic Z-matrix:
 Charge =  0 Multiplicity = 1

                         Standard orientation:
 ---------------------------------------------------------------------
 Center     Atomic      Atomic             Coordinates (Angstroms)
 Number     Number       Type             X           Y           Z
 ---------------------------------------------------------------------
      1          6           0       -0.591134    1.697572   -0.062523
      2          6           0       -0.010923    0.354047    0.367667
      3          6           0        1.215509   -0.059329   -0.384972
      4          6           0        2.395715   -0.412245    0.127292
      5          1           0        2.585467   -0.442949    1.199436
      6          1           0       -1.517479    1.902597    0.477275
      7          1           0        3.220807   -0.685700   -0.526380
      8          1           0        1.088310   -0.059183   -1.466735
      9          1           0        0.133333    0.291545    1.446567
     10          1           0       -0.819061    1.680476   -1.133520
     11          1           0        0.120579    2.510286    0.133159
     12         17           0       -1.345115   -0.863373   -0.024387
 ---------------------------------------------------------------------

 SCF Done:  E(RB3LYP) =  -616.894151154     A.U. after   20 cycles

 The electronic state is 1-A.
 Alpha  occ. eigenvalues -- -101.53405 -10.24909 -10.19501 -10.18545 -10.18124
 Alpha  occ. eigenvalues --   -9.44874  -7.21308  -7.20365  -7.20344  -0.86957
 Alpha  occ. eigenvalues --   -0.78522  -0.73999  -0.64189  -0.57665  -0.48548
 Alpha  occ. eigenvalues --   -0.47663  -0.44428  -0.41670  -0.40147  -0.37533
 Alpha  occ. eigenvalues --   -0.36569  -0.30730  -0.29801  -0.27985
 Alpha virt. eigenvalues --   -0.03358  -0.00707   0.00613   0.00743   0.02243
 Alpha virt. eigenvalues --    0.02805   0.03879   0.04023   0.06387   0.06631
 Alpha virt. eigenvalues --    0.07284   0.08261   0.08719   0.09879   0.11085

 Mulliken atomic charges:
              1
     1  C   -0.679350
     2  C    0.256947
     3  C    0.007482
     4  C   -0.592097
     5  H    0.124782
     6  H    0.154888
     7  H    0.131338
     8  H    0.155988
     9  H    0.242972
    10  H    0.156631
    11  H    0.131685
    12  Cl  -0.091266
 Sum of Mulliken atomic charges =   0.00000

 Dipole moment (field-independent basis, Debye):
    X=              1.5609    Y=              1.5712    Z=              0.3437  Tot=              2.2412
 Quadrupole moment (field-independent basis, Debye-Ang):
   XX=            -39.0700   YY=            -40.4260   ZZ=            -37.1061
   XY=             -2.4110   XZ=              0.1262   YZ=              0.3561

 Normal termination of Gaussian 09 at Wed Jul 10 17:48:18 2013.
