 Gaussian 09, Revision A.02,
 Gaussian 09:  EM64L-G09RevA.02 11-Jun-2009

 ----------------------------------------------------------------------
 #P B3LYP/6-311++G** scf(conver=11) int=ultrafine polar=optrot cphf(rdf
 req,conver=11)
 ----------------------------------------------------------------------

 -----------------------------
 (R)-3-chloro-1-butene tau=120
 -----------------------------
 Symbolic Z-matrix:
 Charge =  0 Multiplicity = 1

                         Standard orientation:
 ---------------------------------------------------------------------
 Center     Atomic      Atomic             Coordinates (Angstroms)
 Number     Number       Type             X           Y           Z
 ---------------------------------------------------------------------
      1          6           0        0.468757    1.754004    0.039908
      2          6           0        0.005901    0.350109   -0.324359
      3          6           0       -1.205709   -0.096784    0.426862
      4          6           0       -2.332564   -0.497942   -0.155916
      5          1           0       -2.428154   -0.551571   -1.236038
      6          1           0        1.373258    2.021604   -0.508654
      7          1           0       -3.198421   -0.788989    0.427267
      8          1           0       -1.128541   -0.061186    1.510941
      9          1           0       -0.155449    0.257833   -1.397851
     10          1           0        0.675493    1.831553    1.109615
     11          1           0       -0.319448    2.469707   -0.213245
     12         17           0        1.386056   -0.837369    0.022882
 ---------------------------------------------------------------------

 SCF Done:  E(RB3LYP) =  -616.895765114     A.U. after   19 cycles

 The electronic state is 1-A.
 Alpha  occ. eigenvalues -- -101.53409 -10.24745 -10.19398 -10.18400 -10.18131
 Alpha  occ. eigenvalues --   -9.44852  -7.21285  -7.20343  -7.20327  -0.86754
 Alpha  occ. eigenvalues --   -0.78706  -0.74238  -0.63998  -0.57789  -0.48572
 Alpha  occ. eigenvalues --   -0.47612  -0.44519  -0.41646  -0.40331  -0.37558
 Alpha  occ. eigenvalues --   -0.36673  -0.30611  -0.29857  -0.28050
 Alpha virt. eigenvalues --   -0.03269  -0.00757   0.00634   0.00728   0.02195
 Alpha virt. eigenvalues --    0.02841   0.03869   0.04109   0.06382   0.06480
 Alpha virt. eigenvalues --    0.07274   0.08333   0.08765   0.09885   0.11093

 Mulliken atomic charges:
              1
     1  C   -0.675886
     2  C    0.171137
     3  C    0.098762
     4  C   -0.623651
     5  H    0.125374
     6  H    0.153892
     7  H    0.133221
     8  H    0.164921
     9  H    0.221053
    10  H    0.155759
    11  H    0.135024
    12  Cl  -0.059606
 Sum of Mulliken atomic charges =   0.00000

 Dipole moment (field-independent basis, Debye):
    X=             -1.7015    Y=              1.5737    Z=             -0.3281  Tot=              2.3408
 Quadrupole moment (field-independent basis, Debye-Ang):
   XX=            -39.4053   YY=            -40.0536   ZZ=            -37.1345
   XY=              2.3626   XZ=              0.0495   YZ=             -0.1906

 Normal termination of Gaussian 09 at Wed Jul 10 15:09:24 2013.
