 Gaussian 09, Revision A.02,
 Gaussian 09:  EM64L-G09RevA.02 11-Jun-2009

 ----------------------------------------------------------------------
 #P B3LYP/6-311++G** scf(conver=11) int=ultrafine polar=optrot cphf(rdf
 req,conver=11)
 ----------------------------------------------------------------------

 -----------------------------
 (R)-3-chloro-1-butene tau=120
 -----------------------------
 Symbolic Z-matrix:
 Charge =  0 Multiplicity = 1

                         Standard orientation:
 ---------------------------------------------------------------------
 Center     Atomic      Atomic             Coordinates (Angstroms)
 Number     Number       Type             X           Y           Z
 ---------------------------------------------------------------------
      1          6           0        0.206695    1.729330    0.110666
      2          6           0       -0.014460    0.278024   -0.315724
      3          6           0       -1.149876   -0.366195    0.415415
      4          6           0       -2.392604   -0.519648   -0.157853
      5          1           0       -2.630344   -0.253968   -1.225278
      6          1           0        1.064544    2.162500   -0.409241
      7          1           0       -3.220089   -0.912302    0.421903
      8          1           0       -0.939170   -0.633974    1.483830
      9          1           0       -0.170110    0.213512   -1.392604
     10          1           0        0.382665    1.800610    1.187529
     11          1           0       -0.689487    2.313306   -0.133528
     12         17           0        1.547263   -0.671691   -0.014567
 ---------------------------------------------------------------------

 SCF Done:  E(RB3LYP) =  -616.890111936     A.U. after   17 cycles

 The electronic state is 1-A.
 Alpha  occ. eigenvalues -- -101.53596 -10.24911 -10.20596 -10.19495 -10.18211
 Alpha  occ. eigenvalues --   -9.45031  -7.21468  -7.20521  -7.20508  -0.86681
 Alpha  occ. eigenvalues --   -0.78228  -0.73672  -0.64063  -0.57394  -0.48377
 Alpha  occ. eigenvalues --   -0.47145  -0.43711  -0.42331  -0.40325  -0.37188
 Alpha  occ. eigenvalues --   -0.36755  -0.30600  -0.29948  -0.27578
 Alpha virt. eigenvalues --   -0.03634  -0.00826   0.00446   0.00705   0.01616
 Alpha virt. eigenvalues --    0.02440   0.03905   0.04463   0.05773   0.06612
 Alpha virt. eigenvalues --    0.07193   0.08208   0.08577   0.09576   0.11140

 Mulliken atomic charges:
              1
     1  C   -0.672244
     2  C    0.003497
     3  C    0.176002
     4  C   -0.626354
     5  H    0.129009
     6  H    0.147927
     7  H    0.137370
     8  H    0.177580
     9  H    0.234330
    10  H    0.160615
    11  H    0.139190
    12  Cl  -0.006920
 Sum of Mulliken atomic charges =   0.00000

 Dipole moment (field-independent basis, Debye):
    X=             -1.9041    Y=              1.3886    Z=             -0.2497  Tot=              2.3699
 Quadrupole moment (field-independent basis, Debye-Ang):
   XX=            -39.7941   YY=            -40.1470   ZZ=            -37.3585
   XY=              1.7392   XZ=              0.5551   YZ=             -1.0619

 Normal termination of Gaussian 09 at Wed Jul 10 17:19:00 2013.
