 Gaussian 09, Revision A.02,
 Gaussian 09:  EM64L-G09RevA.02 11-Jun-2009

 ----------------------------------------------------------------------
 #P B3LYP/6-311++G** scf(conver=11) int=ultrafine polar=optrot cphf(rdf
 req,conver=11)
 ----------------------------------------------------------------------

 -----------------------------
 (R)-3-chloro-1-butene tau=120
 -----------------------------
 Symbolic Z-matrix:
 Charge =  0 Multiplicity = 1

                         Standard orientation:
 ---------------------------------------------------------------------
 Center     Atomic      Atomic             Coordinates (Angstroms)
 Number     Number       Type             X           Y           Z
 ---------------------------------------------------------------------
      1          6           0        0.467188    1.752629    0.050003
      2          6           0        0.006395    0.350877   -0.320658
      3          6           0       -1.206607   -0.096388    0.425492
      4          6           0       -2.333734   -0.495335   -0.158411
      5          1           0       -2.427718   -0.546392   -1.232848
      6          1           0        1.419185    2.033557   -0.528541
      7          1           0       -3.195908   -0.785054    0.420676
      8          1           0       -1.129475   -0.062549    1.521139
      9          1           0       -0.157777    0.258065   -1.421925
     10          1           0        0.667348    1.825819    1.073246
     11          1           0       -0.315722    2.468718   -0.206284
     12         17           0        1.384742   -0.838992    0.023293
 ---------------------------------------------------------------------

 SCF Done:  E(RB3LYP) =  -616.891960743     A.U. after   20 cycles

 The electronic state is 1-A.
 Alpha  occ. eigenvalues -- -101.53420 -10.24998 -10.19536 -10.18321 -10.18197
 Alpha  occ. eigenvalues --   -9.44862  -7.21297  -7.20353  -7.20337  -0.86719
 Alpha  occ. eigenvalues --   -0.78729  -0.74261  -0.63951  -0.57568  -0.48613
 Alpha  occ. eigenvalues --   -0.47550  -0.44524  -0.41621  -0.40252  -0.37622
 Alpha  occ. eigenvalues --   -0.36467  -0.30600  -0.29835  -0.28061
 Alpha virt. eigenvalues --   -0.03338  -0.00769   0.00627   0.00640   0.02218
 Alpha virt. eigenvalues --    0.02838   0.03831   0.04133   0.06346   0.06473
 Alpha virt. eigenvalues --    0.07196   0.08347   0.08756   0.09862   0.11060

 Mulliken atomic charges:
              1
     1  C   -0.674575
     2  C    0.178938
     3  C    0.096656
     4  C   -0.625310
     5  H    0.125714
     6  H    0.147530
     7  H    0.133190
     8  H    0.165313
     9  H    0.217854
    10  H    0.159625
    11  H    0.135334
    12  Cl  -0.060269
 Sum of Mulliken atomic charges =   0.00000

 Dipole moment (field-independent basis, Debye):
    X=             -1.7228    Y=              1.5630    Z=             -0.2875  Tot=              2.3438
 Quadrupole moment (field-independent basis, Debye-Ang):
   XX=            -39.3830   YY=            -40.0873   ZZ=            -37.1702
   XY=              2.3215   XZ=              0.0630   YZ=             -0.1009

 Normal termination of Gaussian 09 at Wed Jul 10 17:28:49 2013.
