 Gaussian 09, Revision A.02,
 Gaussian 09:  EM64L-G09RevA.02 11-Jun-2009

 ----------------------------------------------------------------------
 #P B3LYP/6-311++G** scf(conver=11) int=ultrafine polar=optrot cphf(rdf
 req,conver=11)
 ----------------------------------------------------------------------

 -----------------------------
 (R)-3-chloro-1-butene tau=120
 -----------------------------
 Symbolic Z-matrix:
 Charge =  0 Multiplicity = 1

                         Standard orientation:
 ---------------------------------------------------------------------
 Center     Atomic      Atomic             Coordinates (Angstroms)
 Number     Number       Type             X           Y           Z
 ---------------------------------------------------------------------
      1          6           0       -0.470764    1.753575   -0.041136
      2          6           0       -0.006751    0.350332    0.322929
      3          6           0        1.205744   -0.095503   -0.428695
      4          6           0        2.328940   -0.494041    0.152622
      5          1           0        2.432506   -0.551418    1.289597
      6          1           0       -1.379632    2.021467    0.510306
      7          1           0        3.234063   -0.797331   -0.452738
      8          1           0        1.129171   -0.060326   -1.495181
      9          1           0        0.155875    0.257322    1.406331
     10          1           0       -0.676737    1.830587   -1.105400
     11          1           0        0.316911    2.470544    0.212605
     12         17           0       -1.385598   -0.838648   -0.023520
 ---------------------------------------------------------------------

 SCF Done:  E(RB3LYP) =  -616.892307229     A.U. after   19 cycles

 The electronic state is 1-A.
 Alpha  occ. eigenvalues -- -101.53425 -10.24854 -10.19374 -10.19226 -10.18151
 Alpha  occ. eigenvalues --   -9.44867  -7.21301  -7.20359  -7.20343  -0.86762
 Alpha  occ. eigenvalues --   -0.78680  -0.74184  -0.63635  -0.57578  -0.48295
 Alpha  occ. eigenvalues --   -0.47268  -0.44440  -0.41658  -0.40075  -0.37581
 Alpha  occ. eigenvalues --   -0.36379  -0.30632  -0.29858  -0.28137
 Alpha virt. eigenvalues --   -0.03211  -0.00804   0.00530   0.00672   0.02184
 Alpha virt. eigenvalues --    0.02828   0.03832   0.04040   0.06335   0.06422
 Alpha virt. eigenvalues --    0.07249   0.08255   0.08647   0.09880   0.11066

 Mulliken atomic charges:
              1
     1  C   -0.677747
     2  C    0.173110
     3  C    0.111347
     4  C   -0.638369
     5  H    0.124670
     6  H    0.153611
     7  H    0.135467
     8  H    0.167890
     9  H    0.219336
    10  H    0.156218
    11  H    0.135153
    12  Cl  -0.060687
 Sum of Mulliken atomic charges =   0.00000

 Dipole moment (field-independent basis, Debye):
    X=              1.6782    Y=              1.5830    Z=              0.2957  Tot=              2.3259
 Quadrupole moment (field-independent basis, Debye-Ang):
   XX=            -39.5248   YY=            -40.1378   ZZ=            -37.1503
   XY=             -2.3496   XZ=             -0.0226   YZ=              0.1909

 Normal termination of Gaussian 09 at Wed Jul 10 17:20:39 2013.
