 Gaussian 09, Revision A.02,
 Gaussian 09:  EM64L-G09RevA.02 11-Jun-2009

 ----------------------------------------------------------------------
 #P B3LYP/6-311++G** scf(conver=11) int=ultrafine polar=optrot cphf(rdf
 req,conver=11)
 ----------------------------------------------------------------------

 -----------------------------
 (R)-3-chloro-1-butene tau=120
 -----------------------------
 Symbolic Z-matrix:
 Charge =  0 Multiplicity = 1

                         Standard orientation:
 ---------------------------------------------------------------------
 Center     Atomic      Atomic             Coordinates (Angstroms)
 Number     Number       Type             X           Y           Z
 ---------------------------------------------------------------------
      1          6           0        0.446528    1.708679    0.027362
      2          6           0        0.008383    0.312743   -0.347474
      3          6           0       -1.174595   -0.094660    0.446831
      4          6           0       -2.286816   -0.491018   -0.153687
      5          1           0       -2.321627   -0.586980   -1.236610
      6          1           0        1.362764    1.998449   -0.490990
      7          1           0       -3.192479   -0.734415    0.392982
      8          1           0       -1.097204    0.003838    1.527572
      9          1           0       -0.183760    0.206889   -1.415343
     10          1           0        0.629568    1.757014    1.104507
     11          1           0       -0.343038    2.423829   -0.220548
     12         17           0        1.363810   -0.804888    0.029426
 ---------------------------------------------------------------------

 SCF Done:  E(RB3LYP) =  -616.893175461     A.U. after   19 cycles

 The electronic state is 1-A.
 Alpha  occ. eigenvalues -- -101.53505 -10.24124 -10.19047 -10.18081 -10.17798
 Alpha  occ. eigenvalues --   -9.45049  -7.21471  -7.20535  -7.20514  -0.88065
 Alpha  occ. eigenvalues --   -0.78998  -0.74061  -0.63594  -0.58037  -0.48873
 Alpha  occ. eigenvalues --   -0.47608  -0.44686  -0.41818  -0.40090  -0.38012
 Alpha  occ. eigenvalues --   -0.36662  -0.30686  -0.29873  -0.27934
 Alpha virt. eigenvalues --   -0.02454  -0.00705   0.00616   0.00792   0.02671
 Alpha virt. eigenvalues --    0.03033   0.03925   0.04241   0.06445   0.06539
 Alpha virt. eigenvalues --    0.07430   0.08267   0.08822   0.10161   0.11119

 Mulliken atomic charges:
              1
     1  C   -0.698941
     2  C    0.211717
     3  C    0.086825
     4  C   -0.626953
     5  H    0.119100
     6  H    0.150116
     7  H    0.134616
     8  H    0.166000
     9  H    0.230478
    10  H    0.153016
    11  H    0.133773
    12  Cl  -0.059746
 Sum of Mulliken atomic charges =   0.00000

 Dipole moment (field-independent basis, Debye):
    X=             -1.5595    Y=              1.4476    Z=             -0.3190  Tot=              2.1516
 Quadrupole moment (field-independent basis, Debye-Ang):
   XX=            -39.4765   YY=            -40.2649   ZZ=            -37.0139
   XY=              2.0211   XZ=              0.0224   YZ=             -0.0066

 Normal termination of Gaussian 09 at Wed Jul 10 17:47:59 2013.
