 Gaussian 09, Revision A.02,
 Gaussian 09:  EM64L-G09RevA.02 11-Jun-2009

 ----------------------------------------------------------------------
 #P B3LYP/6-311++G** scf(conver=11) int=ultrafine polar=optrot cphf(rdf
 req,conver=11)
 ----------------------------------------------------------------------

 -----------------------------
 (R)-3-chloro-1-butene tau=120
 -----------------------------
 Symbolic Z-matrix:
 Charge =  0 Multiplicity = 1

                         Standard orientation:
 ---------------------------------------------------------------------
 Center     Atomic      Atomic             Coordinates (Angstroms)
 Number     Number       Type             X           Y           Z
 ---------------------------------------------------------------------
      1          6           0        0.470879    1.753822    0.045725
      2          6           0        0.008811    0.349566   -0.323092
      3          6           0       -1.206257   -0.100429    0.425434
      4          6           0       -2.331287   -0.503188   -0.160918
      5          1           0       -2.419727   -0.552863   -1.241743
      6          1           0        1.335985    2.025449   -0.563671
      7          1           0       -3.193353   -0.796155    0.426840
      8          1           0       -1.125941   -0.064022    1.509557
      9          1           0       -0.156698    0.262923   -1.396361
     10          1           0        0.602792    1.822011    1.129183
     11          1           0       -0.300683    2.494747   -0.196285
     12         17           0        1.388515   -0.834748    0.024094
 ---------------------------------------------------------------------

 SCF Done:  E(RB3LYP) =  -616.894002481     A.U. after   19 cycles

 The electronic state is 1-A.
 Alpha  occ. eigenvalues -- -101.53436 -10.24709 -10.19394 -10.18385 -10.18211
 Alpha  occ. eigenvalues --   -9.44879  -7.21314  -7.20371  -7.20354  -0.86762
 Alpha  occ. eigenvalues --   -0.78690  -0.74239  -0.63917  -0.57796  -0.48618
 Alpha  occ. eigenvalues --   -0.47841  -0.43762  -0.41748  -0.40951  -0.37523
 Alpha  occ. eigenvalues --   -0.36324  -0.30609  -0.29876  -0.28022
 Alpha virt. eigenvalues --   -0.03236  -0.00776   0.00636   0.00687   0.02184
 Alpha virt. eigenvalues --    0.02852   0.03853   0.04200   0.06355   0.06507
 Alpha virt. eigenvalues --    0.07242   0.08297   0.08738   0.09906   0.11068

 Mulliken atomic charges:
              1
     1  C   -0.682522
     2  C    0.177433
     3  C    0.103913
     4  C   -0.632112
     5  H    0.124506
     6  H    0.150897
     7  H    0.133069
     8  H    0.164130
     9  H    0.220234
    10  H    0.152306
    11  H    0.140976
    12  Cl  -0.052830
 Sum of Mulliken atomic charges =   0.00000

 Dipole moment (field-independent basis, Debye):
    X=             -1.7238    Y=              1.5814    Z=             -0.3451  Tot=              2.3646
 Quadrupole moment (field-independent basis, Debye-Ang):
   XX=            -39.6640   YY=            -39.9761   ZZ=            -37.0052
   XY=              2.2507   XZ=             -0.1289   YZ=             -0.2634

 Normal termination of Gaussian 09 at Wed Jul 10 17:28:50 2013.
