 Gaussian 09, Revision A.02,
 Gaussian 09:  EM64L-G09RevA.02 11-Jun-2009

 ----------------------------------------------------------------------
 #P B3LYP/6-311++G** scf(conver=11) int=ultrafine polar=optrot cphf(rdf
 req,conver=11)
 ----------------------------------------------------------------------

 -----------------------------
 (R)-3-chloro-1-butene tau=120
 -----------------------------
 Symbolic Z-matrix:
 Charge =  0 Multiplicity = 1

                         Standard orientation:
 ---------------------------------------------------------------------
 Center     Atomic      Atomic             Coordinates (Angstroms)
 Number     Number       Type             X           Y           Z
 ---------------------------------------------------------------------
      1          6           0       -0.370246    1.776963   -0.044194
      2          6           0       -0.019837    0.350777    0.369175
      3          6           0        1.178351   -0.108482   -0.387685
      4          6           0        2.313186   -0.571169    0.130518
      5          1           0        2.452461   -0.705348    1.201762
      6          1           0       -1.231855    2.170865    0.507650
      7          1           0        3.147774   -0.837292   -0.512468
      8          1           0        1.086370   -0.001322   -1.468130
      9          1           0        0.108122    0.251911    1.446745
     10          1           0       -0.587181    1.817154   -1.115377
     11          1           0        0.498573    2.420896    0.150572
     12         17           0       -1.416646   -0.812083   -0.036332
 ---------------------------------------------------------------------

 SCF Done:  E(RB3LYP) =  -616.894468719     A.U. after   19 cycles

 The electronic state is 1-A.
 Alpha  occ. eigenvalues -- -101.53517 -10.24886 -10.19308 -10.18368 -10.18342
 Alpha  occ. eigenvalues --   -9.44937  -7.21376  -7.20428  -7.20414  -0.86689
 Alpha  occ. eigenvalues --   -0.78640  -0.74286  -0.63980  -0.57765  -0.48460
 Alpha  occ. eigenvalues --   -0.47624  -0.44574  -0.41516  -0.40180  -0.37600
 Alpha  occ. eigenvalues --   -0.36646  -0.30657  -0.29989  -0.27915
 Alpha virt. eigenvalues --   -0.03261  -0.00783   0.00598   0.00720   0.02000
 Alpha virt. eigenvalues --    0.02851   0.03883   0.04049   0.06382   0.06484
 Alpha virt. eigenvalues --    0.07465   0.08268   0.08794   0.09751   0.11115

 Mulliken atomic charges:
              1
     1  C   -0.689403
     2  C    0.244019
     3  C    0.052124
     4  C   -0.622116
     5  H    0.126534
     6  H    0.158048
     7  H    0.128707
     8  H    0.160038
     9  H    0.229851
    10  H    0.156769
    11  H    0.135740
    12  Cl  -0.080312
 Sum of Mulliken atomic charges =   0.00000

 Dipole moment (field-independent basis, Debye):
    X=              1.7227    Y=              1.5766    Z=              0.3636  Tot=              2.3634
 Quadrupole moment (field-independent basis, Debye-Ang):
   XX=            -39.7525   YY=            -39.8466   ZZ=            -37.1171
   XY=             -2.2559   XZ=             -0.0137   YZ=              0.0395

 Normal termination of Gaussian 09 at Wed Jul 10 17:48:09 2013.
