 Gaussian 09, Revision A.02,
 Gaussian 09:  EM64L-G09RevA.02 11-Jun-2009

 ----------------------------------------------------------------------
 #P B3LYP/6-311++G** scf(conver=11) int=ultrafine polar=optrot cphf(rdf
 req,conver=11)
 ----------------------------------------------------------------------

 -----------------------------
 (R)-3-chloro-1-butene tau=120
 -----------------------------
 Symbolic Z-matrix:
 Charge =  0 Multiplicity = 1

                         Standard orientation:
 ---------------------------------------------------------------------
 Center     Atomic      Atomic             Coordinates (Angstroms)
 Number     Number       Type             X           Y           Z
 ---------------------------------------------------------------------
      1          6           0        0.457639    1.752927    0.053243
      2          6           0        0.024031    0.351578   -0.342267
      3          6           0       -1.214489   -0.100656    0.444298
      4          6           0       -2.328200   -0.498646   -0.169554
      5          1           0       -2.461904   -0.557870   -1.245525
      6          1           0        1.364486    1.986126   -0.511287
      7          1           0       -3.179143   -0.789572    0.437972
      8          1           0       -1.182964   -0.085419    1.532659
      9          1           0       -0.151392    0.317473   -1.419834
     10          1           0        0.698526    1.836930    1.115209
     11          1           0       -0.302070    2.492314   -0.219147
     12         17           0        1.387093   -0.837129    0.023272
 ---------------------------------------------------------------------

 SCF Done:  E(RB3LYP) =  -616.893034225     A.U. after   19 cycles

 The electronic state is 1-A.
 Alpha  occ. eigenvalues -- -101.53629 -10.24999 -10.19557 -10.18172 -10.17989
 Alpha  occ. eigenvalues --   -9.45066  -7.21505  -7.20556  -7.20539  -0.86577
 Alpha  occ. eigenvalues --   -0.78491  -0.74258  -0.63352  -0.57696  -0.48206
 Alpha  occ. eigenvalues --   -0.47677  -0.44333  -0.41409  -0.40295  -0.37974
 Alpha  occ. eigenvalues --   -0.36075  -0.30603  -0.30000  -0.27935
 Alpha virt. eigenvalues --   -0.02867  -0.00772   0.00650   0.00678   0.02049
 Alpha virt. eigenvalues --    0.02822   0.03941   0.04018   0.06388   0.06415
 Alpha virt. eigenvalues --    0.07267   0.08319   0.08639   0.09940   0.11083

 Mulliken atomic charges:
              1
     1  C   -0.685042
     2  C    0.179477
     3  C    0.070189
     4  C   -0.605542
     5  H    0.129438
     6  H    0.151566
     7  H    0.125974
     8  H    0.172356
     9  H    0.231190
    10  H    0.155073
    11  H    0.136651
    12  Cl  -0.061331
 Sum of Mulliken atomic charges =   0.00000

 Dipole moment (field-independent basis, Debye):
    X=             -1.6156    Y=              1.5436    Z=             -0.3306  Tot=              2.2588
 Quadrupole moment (field-independent basis, Debye-Ang):
   XX=            -39.6815   YY=            -40.1199   ZZ=            -36.8712
   XY=              2.1530   XZ=              0.1236   YZ=             -0.2941

 Normal termination of Gaussian 09 at Wed Jul 10 17:19:15 2013.
