 Gaussian 09, Revision A.02,
 Gaussian 09:  EM64L-G09RevA.02 11-Jun-2009

 ----------------------------------------------------------------------
 #P B3LYP/6-311++G** scf(conver=11) int=ultrafine polar=optrot cphf(rdf
 req,conver=11)
 ----------------------------------------------------------------------

 -----------------------------
 (R)-3-chloro-1-butene tau=120
 -----------------------------
 Symbolic Z-matrix:
 Charge =  0 Multiplicity = 1

                         Standard orientation:
 ---------------------------------------------------------------------
 Center     Atomic      Atomic             Coordinates (Angstroms)
 Number     Number       Type             X           Y           Z
 ---------------------------------------------------------------------
      1          6           0        0.462559    1.754327    0.044828
      2          6           0        0.009366    0.353944   -0.324530
      3          6           0       -1.217990   -0.104205    0.423878
      4          6           0       -2.335695   -0.503635   -0.163589
      5          1           0       -2.366926   -0.533487   -1.248804
      6          1           0        1.367076    2.028240   -0.501555
      7          1           0       -3.161844   -0.781605    0.482375
      8          1           0       -1.103933   -0.055800    1.504950
      9          1           0       -0.175487    0.247357   -1.393985
     10          1           0        0.683411    1.822606    1.112283
     11          1           0       -0.322418    2.466624   -0.226471
     12         17           0        1.386510   -0.835089    0.022805
 ---------------------------------------------------------------------

 SCF Done:  E(RB3LYP) =  -616.893803198     A.U. after   19 cycles

 The electronic state is 1-A.
 Alpha  occ. eigenvalues -- -101.53443 -10.24697 -10.19227 -10.18337 -10.18147
 Alpha  occ. eigenvalues --   -9.44884  -7.21317  -7.20376  -7.20360  -0.86701
 Alpha  occ. eigenvalues --   -0.78822  -0.74351  -0.63845  -0.57581  -0.48604
 Alpha  occ. eigenvalues --   -0.47375  -0.44604  -0.41647  -0.40475  -0.37672
 Alpha  occ. eigenvalues --   -0.36448  -0.30576  -0.29915  -0.28141
 Alpha virt. eigenvalues --   -0.03059  -0.00759   0.00645   0.00716   0.02226
 Alpha virt. eigenvalues --    0.02824   0.03892   0.04123   0.06388   0.06494
 Alpha virt. eigenvalues --    0.07284   0.08176   0.08592   0.09911   0.11086

 Mulliken atomic charges:
              1
     1  C   -0.670235
     2  C    0.168084
     3  C    0.115220
     4  C   -0.624912
     5  H    0.119204
     6  H    0.155234
     7  H    0.132211
     8  H    0.162344
     9  H    0.211356
    10  H    0.153977
    11  H    0.133997
    12  Cl  -0.056478
 Sum of Mulliken atomic charges =   0.00000

 Dipole moment (field-independent basis, Debye):
    X=             -1.6491    Y=              1.5862    Z=             -0.3046  Tot=              2.3083
 Quadrupole moment (field-independent basis, Debye-Ang):
   XX=            -39.7231   YY=            -40.0586   ZZ=            -37.0721
   XY=              2.2684   XZ=             -0.0192   YZ=             -0.2487

 Normal termination of Gaussian 09 at Wed Jul 10 17:18:52 2013.
