 Gaussian 09, Revision A.02,
 Gaussian 09:  EM64L-G09RevA.02 11-Jun-2009

 ----------------------------------------------------------------------
 #P B3LYP/6-311++G** scf(conver=11) int=ultrafine polar=optrot cphf(rdf
 req,conver=11)
 ----------------------------------------------------------------------

 -----------------------------
 (R)-3-chloro-1-butene tau=120
 -----------------------------
 Symbolic Z-matrix:
 Charge =  0 Multiplicity = 1

                         Standard orientation:
 ---------------------------------------------------------------------
 Center     Atomic      Atomic             Coordinates (Angstroms)
 Number     Number       Type             X           Y           Z
 ---------------------------------------------------------------------
      1          6           0        0.466579    1.754401    0.038192
      2          6           0        0.004611    0.349667   -0.323750
      3          6           0       -1.205166   -0.097670    0.430879
      4          6           0       -2.336289   -0.501780   -0.144513
      5          1           0       -2.434511   -0.557882   -1.273110
      6          1           0        1.369926    2.022383   -0.512248
      7          1           0       -3.151677   -0.776628    0.403993
      8          1           0       -1.127098   -0.061276    1.503910
      9          1           0       -0.158516    0.256065   -1.398479
     10          1           0        0.674994    1.833204    1.107226
     11          1           0       -0.322792    2.469032   -0.214347
     12         17           0        1.386545   -0.836036    0.022247
 ---------------------------------------------------------------------

 SCF Done:  E(RB3LYP) =  -616.891468183     A.U. after   19 cycles

 The electronic state is 1-A.
 Alpha  occ. eigenvalues -- -101.53404 -10.24740 -10.19324 -10.18251 -10.18122
 Alpha  occ. eigenvalues --   -9.44847  -7.21281  -7.20339  -7.20323  -0.86738
 Alpha  occ. eigenvalues --   -0.78744  -0.74278  -0.64206  -0.57761  -0.49158
 Alpha  occ. eigenvalues --   -0.47272  -0.44656  -0.41717  -0.40169  -0.37540
 Alpha  occ. eigenvalues --   -0.36777  -0.30612  -0.29848  -0.28043
 Alpha virt. eigenvalues --   -0.03290  -0.00735   0.00618   0.00788   0.02171
 Alpha virt. eigenvalues --    0.02842   0.03888   0.04081   0.06417   0.06456
 Alpha virt. eigenvalues --    0.07281   0.08315   0.08737   0.09890   0.11120

 Mulliken atomic charges:
              1
     1  C   -0.675879
     2  C    0.172761
     3  C    0.093990
     4  C   -0.613547
     5  H    0.121598
     6  H    0.154115
     7  H    0.131332
     8  H    0.164914
     9  H    0.220306
    10  H    0.155562
    11  H    0.135005
    12  Cl  -0.060158
 Sum of Mulliken atomic charges =   0.00000

 Dipole moment (field-independent basis, Debye):
    X=             -1.7136    Y=              1.5685    Z=             -0.2922  Tot=              2.3413
 Quadrupole moment (field-independent basis, Debye-Ang):
   XX=            -39.3547   YY=            -40.0284   ZZ=            -37.1352
   XY=              2.3690   XZ=             -0.0235   YZ=             -0.2041

 Normal termination of Gaussian 09 at Wed Jul 10 17:47:28 2013.
