 Gaussian 09, Revision A.02,
 Gaussian 09:  EM64L-G09RevA.02 11-Jun-2009

 ----------------------------------------------------------------------
 #P B3LYP/6-311++G** OPT(verytight) scf(conver=12) int(ultrafine) FREQ(
 hpmodes)
 ----------------------------------------------------------------------

 ---------------------------
 3-chloro-1-butene tau = 120
 ---------------------------
 Symbolic Z-matrix:
 Charge =  0 Multiplicity = 1

 SCF Done:  E(RB3LYP) =  -616.895385966     A.U. after   23 cycles
 SCF Done:  E(RB3LYP) =  -616.895763347     A.U. after   30 cycles
 SCF Done:  E(RB3LYP) =  -616.895764911     A.U. after   26 cycles
 SCF Done:  E(RB3LYP) =  -616.895765073     A.U. after   24 cycles
 SCF Done:  E(RB3LYP) =  -616.895765103     A.U. after   29 cycles
 SCF Done:  E(RB3LYP) =  -616.895765112     A.U. after   51 cycles
 SCF Done:  E(RB3LYP) =  -616.895765114     A.U. after   16 cycles
 SCF Done:  E(RB3LYP) =  -616.895765114     A.U. after  127 cycles
 SCF Done:  E(RB3LYP) =  -616.895765114     A.U. after   14 cycles
 Optimization completed.
    -- Stationary point found.
 Normal termination of Gaussian 09 at Wed Jul 10 14:11:15 2013.

 ----------------------------------------------------------------------
 #P Geom=AllCheck Guess=TCheck SCRF=Check GenChk RB3LYP/6-311++G(d,p) F
 req
 ----------------------------------------------------------------------

 3-chloro-1-butene tau = 120
 ---------------------------
 Redundant internal coordinates taken from checkpoint file:
 3c1b.chk
 Charge =  0 Multiplicity = 1

                         Standard orientation:
 ---------------------------------------------------------------------
 Center     Atomic      Atomic             Coordinates (Angstroms)
 Number     Number       Type             X           Y           Z
 ---------------------------------------------------------------------
      1          6           0        0.468757    1.754004    0.039908
      2          6           0        0.005901    0.350109   -0.324359
      3          6           0       -1.205708   -0.096784    0.426862
      4          6           0       -2.332564   -0.497942   -0.155916
      5          1           0       -2.428154   -0.551571   -1.236038
      6          1           0        1.373258    2.021604   -0.508654
      7          1           0       -3.198421   -0.788989    0.427267
      8          1           0       -1.128541   -0.061186    1.510941
      9          1           0       -0.155449    0.257833   -1.397850
     10          1           0        0.675493    1.831553    1.109614
     11          1           0       -0.319448    2.469707   -0.213244
     12         17           0        1.386055   -0.837369    0.022882
 ---------------------------------------------------------------------

 SCF Done:  E(RB3LYP) =  -616.895765114     A.U. after   10 cycles

 The electronic state is 1-A.
 Alpha  occ. eigenvalues -- -101.53409 -10.24745 -10.19398 -10.18400 -10.18131
 Alpha  occ. eigenvalues --   -9.44852  -7.21285  -7.20343  -7.20327  -0.86754
 Alpha  occ. eigenvalues --   -0.78706  -0.74238  -0.63998  -0.57789  -0.48572
 Alpha  occ. eigenvalues --   -0.47612  -0.44519  -0.41646  -0.40331  -0.37558
 Alpha  occ. eigenvalues --   -0.36673  -0.30611  -0.29857  -0.28050
 Alpha virt. eigenvalues --   -0.03269  -0.00757   0.00634   0.00728   0.02195
 Alpha virt. eigenvalues --    0.02841   0.03869   0.04109   0.06382   0.06480
 Alpha virt. eigenvalues --    0.07274   0.08333   0.08765   0.09885   0.11093

 Mulliken atomic charges:
              1
     1  C   -0.675886
     2  C    0.171137
     3  C    0.098762
     4  C   -0.623651
     5  H    0.125374
     6  H    0.153892
     7  H    0.133221
     8  H    0.164921
     9  H    0.221053
    10  H    0.155759
    11  H    0.135024
    12  Cl  -0.059606
 Sum of Mulliken atomic charges =   0.00000

 Dipole moment (field-independent basis, Debye):
    X=             -1.7015    Y=              1.5737    Z=             -0.3281  Tot=              2.3408
 Quadrupole moment (field-independent basis, Debye-Ang):
   XX=            -39.4053   YY=            -40.0536   ZZ=            -37.1345
   XY=              2.3626   XZ=              0.0495   YZ=             -0.1906

  Exact polarizability:  79.950   0.745  59.460   4.032   0.720  52.664
 Approx polarizability: 110.581  -2.379  79.644  10.648   1.226  77.069

                     1                      2                      3
                     A                      A                      A
 Frequencies --   102.5943               249.9159               280.4524
 Red. masses --     2.8668                 1.0671                 2.2880
 Frc consts  --     0.0178                 0.0393                 0.1060
 IR Inten    --     0.1424                 0.1885                 5.0929

                     4                      5                      6
                     A                      A                      A
 Frequencies --   304.1724               320.9183               452.6044
 Red. masses --     2.7615                 2.2269                 3.7634
 Frc consts  --     0.1505                 0.1351                 0.4542
 IR Inten    --     1.9667                 1.3755                 9.2348

                     7                      8                      9
                     A                      A                      A
 Frequencies --   616.1538               715.8343               867.6277
 Red. masses --     2.6396                 1.9211                 1.9880
 Frc consts  --     0.5904                 0.5800                 0.8817
 IR Inten    --    20.4601                40.1709                 9.8776

                    10                     11                     12
                     A                      A                      A
 Frequencies --   960.1385               981.6226              1023.4729
 Red. masses --     1.3268                 1.2960                 1.1305
 Frc consts  --     0.7206                 0.7358                 0.6977
 IR Inten    --    43.6666                 8.9553                 7.9895

                    13                     14                     15
                     A                      A                      A
 Frequencies --  1040.8173              1105.4548              1193.1007
 Red. masses --     1.5353                 2.2189                 2.0522
 Frc consts  --     0.9799                 1.5976                 1.7212
 IR Inten    --    38.1750                 2.6833                12.2574

                    16                     17                     18
                     A                      A                      A
 Frequencies --  1260.6085              1317.2774              1334.4342
 Red. masses --     1.2094                 1.2604                 1.3154
 Frc consts  --     1.1323                 1.2886                 1.3801
 IR Inten    --    24.6970                 1.6735                 2.0965

                    19                     20                     21
                     A                      A                      A
 Frequencies --  1411.7446              1455.9918              1486.0317
 Red. masses --     1.2361                 1.1947                 1.0497
 Frc consts  --     1.4515                 1.4922                 1.3658
 IR Inten    --     7.9806                10.2483                 9.1633

                    22                     23                     24
                     A                      A                      A
 Frequencies --  1494.0257              1697.1985              3031.1090
 Red. masses --     1.0471                 4.5261                 1.0360
 Frc consts  --     1.3771                 7.6814                 5.6079
 IR Inten    --     2.5363                 2.5571                14.1385

                    25                     26                     27
                     A                      A                      A
 Frequencies --  3091.1945              3102.5363              3118.9240
 Red. masses --     1.0933                 1.0948                 1.1007
 Frc consts  --     6.1550                 6.2090                 6.3085
 IR Inten    --     1.3867                15.5181                14.4638

                    28                     29                     30
                     A                      A                      A
 Frequencies --  3130.0000              3143.9446              3216.8605
 Red. masses --     1.0596                 1.0924                 1.1153
 Frc consts  --     6.1161                 6.3616                 6.8002
 IR Inten    --     9.9337                 5.1655                10.4617

 - Thermochemistry -
 -------------------
 Temperature   298.150 Kelvin.  Pressure   1.00000 Atm.
 Atom     1 has atomic number  6 and mass  12.00000

 Molecular mass:    90.02363 amu.
 Principal axes and moments of inertia in atomic units:
                           1         2         3
     Eigenvalues --   324.69081 657.34528 901.21726
           X            0.99650   0.08354   0.00186
           Y           -0.08355   0.99649   0.00548
           Z           -0.00140  -0.00561   0.99998
 This molecule is an asymmetric top.
 Rotational symmetry number  1.
 Rotational temperatures (Kelvin)      0.26676     0.13176     0.09611
 Rotational constants (GHZ):           5.55834     2.74550     2.00256
 Zero-point vibrational energy     260228.2 (Joules/Mol)
                                   62.19604 (Kcal/Mol)
 Warning -- explicit consideration of   7 degrees of freedom as
           vibrations may cause significant error
 Vibrational temperatures:    147.61   359.57   403.51   437.64   461.73
          (Kelvin)            651.20   886.51  1029.92  1248.32  1381.42
                             1412.33  1472.55  1497.50  1590.50  1716.60
                             1813.73  1895.27  1919.95  2031.18  2094.84
                             2138.07  2149.57  2441.89  4361.08  4447.53
                             4463.85  4487.43  4503.37  4523.43  4628.34

 Zero-point correction=                           0.099116 (Hartree/Particle)
 Thermal correction to Energy=                    0.105248
 Thermal correction to Enthalpy=                  0.106192
 Thermal correction to Gibbs Free Energy=         0.069224
 Sum of electronic and zero-point Energies=           -616.796649
 Sum of electronic and thermal Energies=              -616.790518
 Sum of electronic and thermal Enthalpies=            -616.789573
 Sum of electronic and thermal Free Energies=         -616.826541

                     E (Thermal)             CV                S
                      KCal/Mol        Cal/Mol-Kelvin    Cal/Mol-Kelvin
 Total                   66.044             21.193             77.804
 Electronic               0.000              0.000              0.000
 Translational            0.889              2.981             39.405
 Rotational               0.889              2.981             26.756
 Vibrational             64.266             15.232             11.644
 Vibration     1          0.605              1.947              3.404
 Vibration     2          0.663              1.763              1.731
 Vibration     3          0.680              1.710              1.531
 Vibration     4          0.695              1.666              1.394
 Vibration     5          0.706              1.633              1.305
 Vibration     6          0.811              1.355              0.788
 Vibration     7          0.976              0.998              0.423

 Optimization completed.
    -- Stationary point found.
 Normal termination of Gaussian 09 at Wed Jul 10 14:33:47 2013.
