 Gaussian 09, Revision A.02,
 Gaussian 09:  EM64L-G09RevA.02 11-Jun-2009

 ----------------------------------------------------------------------
 #P B3LYP/6-311++G** scf(conver=11) int=ultrafine polar=optrot cphf(rdf
 req,conver=11)
 ----------------------------------------------------------------------

 -----------------------------
 (R)-3-chloro-1-butene tau=120
 -----------------------------
 Symbolic Z-matrix:
 Charge =  0 Multiplicity = 1

                         Standard orientation:
 ---------------------------------------------------------------------
 Center     Atomic      Atomic             Coordinates (Angstroms)
 Number     Number       Type             X           Y           Z
 ---------------------------------------------------------------------
      1          6           0        0.498317    1.765468    0.034547
      2          6           0        0.027386    0.338545   -0.342186
      3          6           0       -1.219823   -0.088005    0.440137
      4          6           0       -2.350618   -0.478397   -0.154563
      5          1           0       -2.386378   -0.514981   -1.241637
      6          1           0        1.415007    2.081245   -0.471356
      7          1           0       -3.254316   -0.775482    0.369546
      8          1           0       -1.126983   -0.052322    1.523682
      9          1           0       -0.142385    0.227397   -1.413182
     10          1           0        0.670683    1.797316    1.114916
     11          1           0       -0.301784    2.477217   -0.193393
     12         17           0        1.376152   -0.850944    0.026107
 ---------------------------------------------------------------------

 SCF Done:  E(RB3LYP) =  -616.893798394     A.U. after   17 cycles

 The electronic state is 1-A.
 Alpha  occ. eigenvalues -- -101.53557 -10.25098 -10.19738 -10.18498 -10.18311
 Alpha  occ. eigenvalues --   -9.45014  -7.21451  -7.20502  -7.20487  -0.86588
 Alpha  occ. eigenvalues --   -0.78482  -0.73813  -0.63633  -0.57787  -0.48478
 Alpha  occ. eigenvalues --   -0.47081  -0.44337  -0.41617  -0.40083  -0.37743
 Alpha  occ. eigenvalues --   -0.36679  -0.30560  -0.29862  -0.28029
 Alpha virt. eigenvalues --   -0.02980  -0.00729   0.00597   0.00793   0.02178
 Alpha virt. eigenvalues --    0.02808   0.03780   0.04240   0.06290   0.06445
 Alpha virt. eigenvalues --    0.07332   0.08217   0.08762   0.09933   0.11035

 Mulliken atomic charges:
              1
     1  C   -0.670047
     2  C    0.162305
     3  C    0.101296
     4  C   -0.626340
     5  H    0.120858
     6  H    0.154986
     7  H    0.138196
     8  H    0.167247
     9  H    0.217073
    10  H    0.156333
    11  H    0.134933
    12  Cl  -0.056838
 Sum of Mulliken atomic charges =   0.00000

 Dipole moment (field-independent basis, Debye):
    X=             -1.6148    Y=              1.5282    Z=             -0.3226  Tot=              2.2466
 Quadrupole moment (field-independent basis, Debye-Ang):
   XX=            -39.2514   YY=            -40.1043   ZZ=            -37.2415
   XY=              2.4172   XZ=              0.0038   YZ=             -0.1808

 Normal termination of Gaussian 09 at Wed Jul 10 17:47:54 2013.
