 Gaussian 09, Revision A.02,
 Gaussian 09:  EM64L-G09RevA.02 11-Jun-2009

 ----------------------------------------------------------------------
 #P B3LYP/6-311++G** scf(conver=11) int=ultrafine polar=optrot cphf(rdf
 req,conver=11)
 ----------------------------------------------------------------------

 -----------------------------
 (R)-3-chloro-1-butene tau=120
 -----------------------------
 Symbolic Z-matrix:
 Charge =  0 Multiplicity = 1

                         Standard orientation:
 ---------------------------------------------------------------------
 Center     Atomic      Atomic             Coordinates (Angstroms)
 Number     Number       Type             X           Y           Z
 ---------------------------------------------------------------------
      1          6           0        0.469492    1.741231    0.052945
      2          6           0        0.007376    0.360909   -0.327587
      3          6           0       -1.207604   -0.099323    0.427049
      4          6           0       -2.338903   -0.504360   -0.148626
      5          1           0       -2.385539   -0.533744   -1.234933
      6          1           0        1.354063    2.011600   -0.527305
      7          1           0       -3.240287   -0.785085    0.386358
      8          1           0       -1.092436   -0.064157    1.508648
      9          1           0       -0.134491    0.319513   -1.408711
     10          1           0        0.680266    1.871837    1.117114
     11          1           0       -0.337248    2.426047   -0.234187
     12         17           0        1.386677   -0.837456    0.021784
 ---------------------------------------------------------------------

 SCF Done:  E(RB3LYP) =  -616.894277360     A.U. after   18 cycles

 The electronic state is 1-A.
 Alpha  occ. eigenvalues -- -101.53325 -10.24819 -10.19546 -10.18510 -10.18093
 Alpha  occ. eigenvalues --   -9.44763  -7.21194  -7.20258  -7.20239  -0.86731
 Alpha  occ. eigenvalues --   -0.78592  -0.74538  -0.63819  -0.57871  -0.48668
 Alpha  occ. eigenvalues --   -0.47597  -0.44847  -0.41602  -0.40305  -0.37543
 Alpha  occ. eigenvalues --   -0.36445  -0.30659  -0.29811  -0.27990
 Alpha virt. eigenvalues --   -0.03303  -0.00803   0.00635   0.00705   0.02140
 Alpha virt. eigenvalues --    0.02846   0.03827   0.04101   0.06280   0.06462
 Alpha virt. eigenvalues --    0.07338   0.08297   0.08691   0.09860   0.11071

 Mulliken atomic charges:
              1
     1  C   -0.675950
     2  C    0.178292
     3  C    0.091986
     4  C   -0.627230
     5  H    0.120034
     6  H    0.154197
     7  H    0.138276
     8  H    0.164428
     9  H    0.228469
    10  H    0.155335
    11  H    0.135947
    12  Cl  -0.063785
 Sum of Mulliken atomic charges =   0.00000

 Dipole moment (field-independent basis, Debye):
    X=             -1.7147    Y=              1.6403    Z=             -0.3416  Tot=              2.3974
 Quadrupole moment (field-independent basis, Debye-Ang):
   XX=            -39.3453   YY=            -40.1536   ZZ=            -37.1332
   XY=              2.3954   XZ=              0.0472   YZ=             -0.2632

 Normal termination of Gaussian 09 at Wed Jul 10 17:19:05 2013.
