 Gaussian 09, Revision A.02,
 Gaussian 09:  EM64L-G09RevA.02 11-Jun-2009

 ----------------------------------------------------------------------
 #P B3LYP/6-311++G** scf(conver=11) int=ultrafine polar=optrot cphf(rdf
 req,conver=11)
 ----------------------------------------------------------------------

 -----------------------------
 (R)-3-chloro-1-butene tau=120
 -----------------------------
 Symbolic Z-matrix:
 Charge =  0 Multiplicity = 1

                         Standard orientation:
 ---------------------------------------------------------------------
 Center     Atomic      Atomic             Coordinates (Angstroms)
 Number     Number       Type             X           Y           Z
 ---------------------------------------------------------------------
      1          6           0        0.468772    1.736540    0.033078
      2          6           0        0.007598    0.349762   -0.325191
      3          6           0       -1.206299   -0.094610    0.425943
      4          6           0       -2.334415   -0.493769   -0.154460
      5          1           0       -2.427282   -0.549394   -1.234737
      6          1           0        1.370227    2.070637   -0.491247
      7          1           0       -3.201439   -0.780782    0.428825
      8          1           0       -1.130930   -0.058297    1.509871
      9          1           0       -0.160175    0.248192   -1.396671
     10          1           0        0.688411    1.889765    1.095981
     11          1           0       -0.271706    2.515102   -0.197296
     12         17           0        1.383468   -0.842515    0.024062
 ---------------------------------------------------------------------

 SCF Done:  E(RB3LYP) =  -616.893725223     A.U. after   19 cycles

 The electronic state is 1-A.
 Alpha  occ. eigenvalues -- -101.53431 -10.24893 -10.19400 -10.18390 -10.18083
 Alpha  occ. eigenvalues --   -9.44874  -7.21312  -7.20363  -7.20347  -0.86840
 Alpha  occ. eigenvalues --   -0.78724  -0.74309  -0.64210  -0.57851  -0.48825
 Alpha  occ. eigenvalues --   -0.47498  -0.44213  -0.42355  -0.39983  -0.37249
 Alpha  occ. eigenvalues --   -0.36428  -0.30650  -0.29936  -0.28059
 Alpha virt. eigenvalues --   -0.03300  -0.00773   0.00549   0.00746   0.02139
 Alpha virt. eigenvalues --    0.02828   0.03867   0.04088   0.06357   0.06537
 Alpha virt. eigenvalues --    0.07307   0.08389   0.08834   0.09938   0.11014

 Mulliken atomic charges:
              1
     1  C   -0.726027
     2  C    0.200605
     3  C    0.104480
     4  C   -0.624081
     5  H    0.124714
     6  H    0.158637
     7  H    0.132823
     8  H    0.163846
     9  H    0.220728
    10  H    0.160797
    11  H    0.141068
    12  Cl  -0.057590
 Sum of Mulliken atomic charges =   0.00000

 Dipole moment (field-independent basis, Debye):
    X=             -1.6827    Y=              1.6179    Z=             -0.3137  Tot=              2.3553
 Quadrupole moment (field-independent basis, Debye-Ang):
   XX=            -39.4342   YY=            -39.6600   ZZ=            -37.2192
   XY=              2.4948   XZ=              0.0647   YZ=             -0.0752

 Normal termination of Gaussian 09 at Wed Jul 10 17:19:00 2013.
