 Gaussian 09, Revision A.02,
 Gaussian 09:  EM64L-G09RevA.02 11-Jun-2009

 ----------------------------------------------------------------------
 #P B3LYP/6-311++G** scf(conver=11) int=ultrafine polar=optrot cphf(rdf
 req,conver=11)
 ----------------------------------------------------------------------

 -----------------------------
 (R)-3-chloro-1-butene tau=120
 -----------------------------
 Symbolic Z-matrix:
 Charge =  0 Multiplicity = 1

                         Standard orientation:
 ---------------------------------------------------------------------
 Center     Atomic      Atomic             Coordinates (Angstroms)
 Number     Number       Type             X           Y           Z
 ---------------------------------------------------------------------
      1          6           0        0.470757    1.739323    0.038609
      2          6           0        0.026833    0.338787   -0.312204
      3          6           0       -1.216604   -0.063297    0.423311
      4          6           0       -2.333969   -0.496174   -0.156492
      5          1           0       -2.463994   -0.489353   -1.236561
      6          1           0        1.365525    2.036457   -0.511423
      7          1           0       -3.158783   -0.886121    0.438890
      8          1           0       -1.127195   -0.092163    1.508956
      9          1           0       -0.132498    0.246800   -1.386103
     10          1           0        0.666063    1.839458    1.109035
     11          1           0       -0.345104    2.421016   -0.225276
     12         17           0        1.383170   -0.834584    0.020185
 ---------------------------------------------------------------------

 SCF Done:  E(RB3LYP) =  -616.894054398     A.U. after   18 cycles

 The electronic state is 1-A.
 Alpha  occ. eigenvalues -- -101.53666 -10.24482 -10.19338 -10.18442 -10.17895
 Alpha  occ. eigenvalues --   -9.45140  -7.21576  -7.20626  -7.20609  -0.87245
 Alpha  occ. eigenvalues --   -0.78796  -0.74303  -0.63768  -0.57651  -0.48571
 Alpha  occ. eigenvalues --   -0.47659  -0.44559  -0.41789  -0.40250  -0.37474
 Alpha  occ. eigenvalues --   -0.36689  -0.30532  -0.29933  -0.28160
 Alpha virt. eigenvalues --   -0.03197  -0.00705   0.00688   0.00756   0.02522
 Alpha virt. eigenvalues --    0.02870   0.03845   0.04132   0.06413   0.06514
 Alpha virt. eigenvalues --    0.07270   0.08388   0.08778   0.10012   0.11161

 Mulliken atomic charges:
              1
     1  C   -0.660656
     2  C    0.148811
     3  C    0.084714
     4  C   -0.611383
     5  H    0.126580
     6  H    0.155437
     7  H    0.131680
     8  H    0.162249
     9  H    0.211751
    10  H    0.153339
    11  H    0.132239
    12  Cl  -0.034761
 Sum of Mulliken atomic charges =   0.00000

 Dipole moment (field-independent basis, Debye):
    X=             -1.5748    Y=              1.4048    Z=             -0.3311  Tot=              2.1361
 Quadrupole moment (field-independent basis, Debye-Ang):
   XX=            -39.4659   YY=            -40.0345   ZZ=            -37.1810
   XY=              2.4475   XZ=              0.0942   YZ=             -0.3461

 Normal termination of Gaussian 09 at Wed Jul 10 17:48:12 2013.
