 Gaussian 09, Revision A.02,
 Gaussian 09:  EM64L-G09RevA.02 11-Jun-2009

 ----------------------------------------------------------------------
 #P B3LYP/6-311++G** scf(conver=11) int=ultrafine polar=optrot cphf(rdf
 req,conver=11)
 ----------------------------------------------------------------------

 -----------------------------
 (R)-3-chloro-1-butene tau=120
 -----------------------------
 Symbolic Z-matrix:
 Charge =  0 Multiplicity = 1

                         Standard orientation:
 ---------------------------------------------------------------------
 Center     Atomic      Atomic             Coordinates (Angstroms)
 Number     Number       Type             X           Y           Z
 ---------------------------------------------------------------------
      1          6           0       -0.815118    1.706054    0.015919
      2          6           0       -0.062138    0.420220    0.339408
      3          6           0        1.214005    0.230784   -0.411810
      4          6           0        2.310581   -0.384508    0.150112
      5          1           0        2.338238   -0.769192    1.207126
      6          1           0       -1.750312    1.763794    0.576675
      7          1           0        3.215395   -0.534663   -0.427446
      8          1           0        1.201241    0.581004   -1.477722
      9          1           0        0.107817    0.317612    1.410634
     10          1           0       -1.049403    1.764518   -1.050618
     11          1           0       -0.192389    2.570383    0.283142
     12         17           0       -1.162033   -1.031103   -0.063739
 ---------------------------------------------------------------------

 SCF Done:  E(RB3LYP) =  -616.890049383     A.U. after   20 cycles

 The electronic state is 1-A.
 Alpha  occ. eigenvalues -- -101.53179 -10.24783 -10.20447 -10.19537 -10.18264
 Alpha  occ. eigenvalues --   -9.44619  -7.21054  -7.20112  -7.20094  -0.86420
 Alpha  occ. eigenvalues --   -0.77720  -0.74039  -0.63962  -0.57415  -0.48150
 Alpha  occ. eigenvalues --   -0.46946  -0.44876  -0.40558  -0.40187  -0.38003
 Alpha  occ. eigenvalues --   -0.36728  -0.30497  -0.29761  -0.27174
 Alpha virt. eigenvalues --   -0.04496  -0.00777   0.00464   0.00681   0.02034
 Alpha virt. eigenvalues --    0.03100   0.03653   0.03933   0.06261   0.06875
 Alpha virt. eigenvalues --    0.07410   0.08315   0.08924   0.10060   0.10651

 Mulliken atomic charges:
              1
     1  C   -0.639610
     2  C    0.158055
     3  C    0.118302
     4  C   -0.699075
     5  H    0.132518
     6  H    0.160355
     7  H    0.134876
     8  H    0.189311
     9  H    0.227475
    10  H    0.147110
    11  H    0.132662
    12  Cl  -0.061978
 Sum of Mulliken atomic charges =   0.00000

 Dipole moment (field-independent basis, Debye):
    X=              1.3723    Y=              1.7878    Z=              0.4107  Tot=              2.2908
 Quadrupole moment (field-independent basis, Debye-Ang):
   XX=            -38.9146   YY=            -40.1757   ZZ=            -37.4001
   XY=             -2.8566   XZ=             -0.2226   YZ=             -0.7224

 Normal termination of Gaussian 09 at Wed Jul 10 17:20:27 2013.
