 Gaussian 09, Revision A.02,
 Gaussian 09:  EM64L-G09RevA.02 11-Jun-2009

 ----------------------------------------------------------------------
 #P B3LYP/6-311++G** scf(conver=11) int=ultrafine polar=optrot cphf(rdf
 req,conver=11)
 ----------------------------------------------------------------------

 -----------------------------
 (R)-3-chloro-1-butene tau=120
 -----------------------------
 Symbolic Z-matrix:
 Charge =  0 Multiplicity = 1

                         Standard orientation:
 ---------------------------------------------------------------------
 Center     Atomic      Atomic             Coordinates (Angstroms)
 Number     Number       Type             X           Y           Z
 ---------------------------------------------------------------------
      1          6           0        0.466680    1.754176    0.034101
      2          6           0        0.002996    0.350664   -0.325617
      3          6           0       -1.205144   -0.093104    0.428308
      4          6           0       -2.333838   -0.492612   -0.150872
      5          1           0       -2.436615   -0.550158   -1.230259
      6          1           0        1.410760    2.017747   -0.453767
      7          1           0       -3.203497   -0.781716    0.427764
      8          1           0       -1.131107   -0.058306    1.512360
      9          1           0       -0.154245    0.252740   -1.399329
     10          1           0        0.748257    1.840715    1.089786
     11          1           0       -0.338298    2.444721   -0.230038
     12         17           0        1.383564   -0.840029    0.021645
 ---------------------------------------------------------------------

 SCF Done:  E(RB3LYP) =  -616.893957613     A.U. after   19 cycles

 The electronic state is 1-A.
 Alpha  occ. eigenvalues -- -101.53385 -10.24789 -10.19402 -10.18417 -10.18180
 Alpha  occ. eigenvalues --   -9.44827  -7.21260  -7.20319  -7.20304  -0.86752
 Alpha  occ. eigenvalues --   -0.78725  -0.74235  -0.64077  -0.57793  -0.48538
 Alpha  occ. eigenvalues --   -0.47417  -0.45403  -0.41556  -0.39640  -0.37690
 Alpha  occ. eigenvalues --   -0.36570  -0.30610  -0.29841  -0.28077
 Alpha virt. eigenvalues --   -0.03314  -0.00751   0.00615   0.00762   0.02184
 Alpha virt. eigenvalues --    0.02825   0.03818   0.04070   0.06361   0.06457
 Alpha virt. eigenvalues --    0.07273   0.08344   0.08787   0.09853   0.11113

 Mulliken atomic charges:
              1
     1  C   -0.673113
     2  C    0.169687
     3  C    0.092090
     4  C   -0.615161
     5  H    0.126198
     6  H    0.158902
     7  H    0.133319
     8  H    0.165519
     9  H    0.221935
    10  H    0.158825
    11  H    0.129463
    12  Cl  -0.067663
 Sum of Mulliken atomic charges =   0.00000

 Dipole moment (field-independent basis, Debye):
    X=             -1.6806    Y=              1.5654    Z=             -0.3125  Tot=              2.3178
 Quadrupole moment (field-independent basis, Debye-Ang):
   XX=            -39.1524   YY=            -40.1414   ZZ=            -37.2913
   XY=              2.4718   XZ=              0.2348   YZ=             -0.1200

 Normal termination of Gaussian 09 at Wed Jul 10 17:28:32 2013.
