 Gaussian 09, Revision A.02,
 Gaussian 09:  EM64L-G09RevA.02 11-Jun-2009

 ----------------------------------------------------------------------
 #P B3LYP/6-311++G** scf(conver=11) int=ultrafine polar=optrot cphf(rdf
 req,conver=11)
 ----------------------------------------------------------------------

 -----------------------------
 (R)-3-chloro-1-butene tau=120
 -----------------------------
 Symbolic Z-matrix:
 Charge =  0 Multiplicity = 1

                         Standard orientation:
 ---------------------------------------------------------------------
 Center     Atomic      Atomic             Coordinates (Angstroms)
 Number     Number       Type             X           Y           Z
 ---------------------------------------------------------------------
      1          6           0        0.469712    1.753051    0.043570
      2          6           0        0.005288    0.349429   -0.328593
      3          6           0       -1.205303   -0.098569    0.427314
      4          6           0       -2.331503   -0.501144   -0.155794
      5          1           0       -2.427160   -0.555004   -1.238244
      6          1           0        1.366908    2.021327   -0.504958
      7          1           0       -3.198218   -0.793740    0.428233
      8          1           0       -1.128556   -0.063081    1.505401
      9          1           0       -0.148658    0.262125   -1.347599
     10          1           0        0.666326    1.829444    1.069418
     11          1           0       -0.346194    2.490358   -0.220349
     12         17           0        1.387435   -0.835767    0.022889
 ---------------------------------------------------------------------

 SCF Done:  E(RB3LYP) =  -616.891640815     A.U. after   19 cycles

 The electronic state is 1-A.
 Alpha  occ. eigenvalues -- -101.53401 -10.24226 -10.19321 -10.18416 -10.17965
 Alpha  occ. eigenvalues --   -9.44845  -7.21277  -7.20338  -7.20323  -0.86887
 Alpha  occ. eigenvalues --   -0.78699  -0.74298  -0.64288  -0.58344  -0.48462
 Alpha  occ. eigenvalues --   -0.47896  -0.44450  -0.41554  -0.40742  -0.37871
 Alpha  occ. eigenvalues --   -0.36575  -0.30642  -0.29894  -0.28036
 Alpha virt. eigenvalues --   -0.03237  -0.00767   0.00631   0.00862   0.02196
 Alpha virt. eigenvalues --    0.02851   0.03867   0.04150   0.06462   0.06496
 Alpha virt. eigenvalues --    0.07280   0.08395   0.08782   0.09836   0.11114

 Mulliken atomic charges:
              1
     1  C   -0.663807
     2  C    0.170291
     3  C    0.079363
     4  C   -0.611356
     5  H    0.125949
     6  H    0.152823
     7  H    0.132570
     8  H    0.163187
     9  H    0.227723
    10  H    0.158053
    11  H    0.128621
    12  Cl  -0.063415
 Sum of Mulliken atomic charges =   0.00000

 Dipole moment (field-independent basis, Debye):
    X=             -1.6890    Y=              1.5656    Z=             -0.3217  Tot=              2.3253
 Quadrupole moment (field-independent basis, Debye-Ang):
   XX=            -39.3810   YY=            -40.0675   ZZ=            -37.0844
   XY=              2.3866   XZ=              0.0718   YZ=             -0.1559

 Normal termination of Gaussian 09 at Wed Jul 10 17:28:43 2013.
