 Gaussian 09, Revision A.02,
 Gaussian 09:  EM64L-G09RevA.02 11-Jun-2009

 ----------------------------------------------------------------------
 #P B3LYP/6-311++G** scf(conver=11) int=ultrafine polar=optrot cphf(rdf
 req,conver=11)
 ----------------------------------------------------------------------

 -----------------------------
 (R)-3-chloro-1-butene tau=120
 -----------------------------
 Symbolic Z-matrix:
 Charge =  0 Multiplicity = 1

                         Standard orientation:
 ---------------------------------------------------------------------
 Center     Atomic      Atomic             Coordinates (Angstroms)
 Number     Number       Type             X           Y           Z
 ---------------------------------------------------------------------
      1          6           0        0.467764    1.750158    0.039151
      2          6           0        0.005731    0.349701   -0.324455
      3          6           0       -1.205580   -0.098020    0.426838
      4          6           0       -2.332232   -0.499946   -0.155995
      5          1           0       -2.427726   -0.553649   -1.236061
      6          1           0        1.400849    2.029700   -0.526477
      7          1           0       -3.197891   -0.791541    0.427163
      8          1           0       -1.128619   -0.062470    1.510071
      9          1           0       -0.155609    0.257187   -1.397536
     10          1           0        0.681760    1.833398    1.147856
     11          1           0       -0.359629    2.503173   -0.225903
     12         17           0        1.386633   -0.836891    0.022803
 ---------------------------------------------------------------------

 SCF Done:  E(RB3LYP) =  -616.892483492     A.U. after   19 cycles

 The electronic state is 1-A.
 Alpha  occ. eigenvalues -- -101.53456 -10.24822 -10.19420 -10.19404 -10.18421
 Alpha  occ. eigenvalues --   -9.44898  -7.21333  -7.20389  -7.20374  -0.86778
 Alpha  occ. eigenvalues --   -0.78733  -0.73788  -0.63595  -0.57765  -0.48462
 Alpha  occ. eigenvalues --   -0.47525  -0.44125  -0.41574  -0.39966  -0.37247
 Alpha  occ. eigenvalues --   -0.36446  -0.30657  -0.29908  -0.28067
 Alpha virt. eigenvalues --   -0.03324  -0.00846   0.00560   0.00703   0.02082
 Alpha virt. eigenvalues --    0.02821   0.03811   0.04026   0.06312   0.06412
 Alpha virt. eigenvalues --    0.07205   0.08256   0.08698   0.09762   0.11040

 Mulliken atomic charges:
              1
     1  C   -0.693001
     2  C    0.186610
     3  C    0.098750
     4  C   -0.628506
     5  H    0.125455
     6  H    0.155661
     7  H    0.133278
     8  H    0.166525
     9  H    0.223354
    10  H    0.157302
    11  H    0.133226
    12  Cl  -0.058653
 Sum of Mulliken atomic charges =   0.00000

 Dipole moment (field-independent basis, Debye):
    X=             -1.7006    Y=              1.5258    Z=             -0.3335  Tot=              2.3090
 Quadrupole moment (field-independent basis, Debye-Ang):
   XX=            -39.4471   YY=            -40.2657   ZZ=            -37.2104
   XY=              2.3452   XZ=              0.0470   YZ=             -0.2015

 Normal termination of Gaussian 09 at Wed Jul 10 17:28:47 2013.
