 Gaussian 09, Revision A.02,
 Gaussian 09:  EM64L-G09RevA.02 11-Jun-2009

 ----------------------------------------------------------------------
 #P B3LYP/6-311++G** scf(conver=11) int=ultrafine polar=optrot cphf(rdf
 req,conver=11)
 ----------------------------------------------------------------------

 -----------------------------
 (R)-3-chloro-1-butene tau=120
 -----------------------------
 Symbolic Z-matrix:
 Charge =  0 Multiplicity = 1

                         Standard orientation:
 ---------------------------------------------------------------------
 Center     Atomic      Atomic             Coordinates (Angstroms)
 Number     Number       Type             X           Y           Z
 ---------------------------------------------------------------------
      1          6           0        0.470512    1.753777    0.041080
      2          6           0        0.006315    0.350305   -0.320164
      3          6           0       -1.204826   -0.099672    0.426602
      4          6           0       -2.330893   -0.503455   -0.155580
      5          1           0       -2.426177   -0.557199   -1.233257
      6          1           0        1.338381    2.015289   -0.488426
      7          1           0       -3.194307   -0.795911    0.426433
      8          1           0       -1.127002   -0.063576    1.519892
      9          1           0       -0.161480    0.253147   -1.441280
     10          1           0        0.669273    1.831297    1.090562
     11          1           0       -0.352185    2.494351   -0.221920
     12         17           0        1.388638   -0.834301    0.023316
 ---------------------------------------------------------------------

 SCF Done:  E(RB3LYP) =  -616.892012997     A.U. after   20 cycles

 The electronic state is 1-A.
 Alpha  occ. eigenvalues -- -101.53459 -10.25167 -10.19485 -10.18348 -10.17959
 Alpha  occ. eigenvalues --   -9.44901  -7.21335  -7.20392  -7.20377  -0.86705
 Alpha  occ. eigenvalues --   -0.78702  -0.74330  -0.64030  -0.57333  -0.48490
 Alpha  occ. eigenvalues --   -0.47598  -0.44496  -0.41603  -0.40604  -0.37285
 Alpha  occ. eigenvalues --   -0.36702  -0.30605  -0.29834  -0.28058
 Alpha virt. eigenvalues --   -0.03253  -0.00779   0.00580   0.00654   0.02189
 Alpha virt. eigenvalues --    0.02848   0.03867   0.04092   0.06326   0.06462
 Alpha virt. eigenvalues --    0.07319   0.08333   0.08751   0.09823   0.11072

 Mulliken atomic charges:
              1
     1  C   -0.663767
     2  C    0.158762
     3  C    0.114935
     4  C   -0.632595
     5  H    0.125212
     6  H    0.156709
     7  H    0.133457
     8  H    0.165984
     9  H    0.213071
    10  H    0.156044
    11  H    0.128899
    12  Cl  -0.056709
 Sum of Mulliken atomic charges =   0.00000

 Dipole moment (field-independent basis, Debye):
    X=             -1.6646    Y=              1.5580    Z=             -0.3024  Tot=              2.2999
 Quadrupole moment (field-independent basis, Debye-Ang):
   XX=            -39.3681   YY=            -40.0588   ZZ=            -37.1804
   XY=              2.4244   XZ=              0.0556   YZ=             -0.1537

 Normal termination of Gaussian 09 at Wed Jul 10 17:28:56 2013.
