 Gaussian 09, Revision A.02,
 Gaussian 09:  EM64L-G09RevA.02 11-Jun-2009

 ----------------------------------------------------------------------
 #P B3LYP/6-311++G** scf(conver=11) int=ultrafine polar=optrot cphf(rdf
 req,conver=11)
 ----------------------------------------------------------------------

 -----------------------------
 (R)-3-chloro-1-butene tau=120
 -----------------------------
 Symbolic Z-matrix:
 Charge =  0 Multiplicity = 1

                         Standard orientation:
 ---------------------------------------------------------------------
 Center     Atomic      Atomic             Coordinates (Angstroms)
 Number     Number       Type             X           Y           Z
 ---------------------------------------------------------------------
      1          6           0       -0.468693    1.753952   -0.041085
      2          6           0       -0.006135    0.350225    0.322745
      3          6           0        1.204891   -0.096478   -0.433515
      4          6           0        2.333340   -0.498319    0.156965
      5          1           0        2.426430   -0.550700    1.214969
      6          1           0       -1.375043    2.022078    0.509084
      7          1           0        3.195793   -0.788190   -0.426001
      8          1           0        1.133317   -0.063414   -1.442954
      9          1           0        0.156851    0.256844    1.407841
     10          1           0       -0.674445    1.831099   -1.105647
     11          1           0        0.320261    2.470403    0.212691
     12         17           0       -1.386093   -0.837318   -0.023567
 ---------------------------------------------------------------------

 SCF Done:  E(RB3LYP) =  -616.891285617     A.U. after   19 cycles

 The electronic state is 1-A.
 Alpha  occ. eigenvalues -- -101.53397 -10.24785 -10.18717 -10.18174 -10.18108
 Alpha  occ. eigenvalues --   -9.44841  -7.21273  -7.20333  -7.20316  -0.86749
 Alpha  occ. eigenvalues --   -0.78816  -0.74248  -0.64039  -0.58656  -0.48641
 Alpha  occ. eigenvalues --   -0.47779  -0.44512  -0.41700  -0.40708  -0.37735
 Alpha  occ. eigenvalues --   -0.36761  -0.30573  -0.29834  -0.27969
 Alpha virt. eigenvalues --   -0.03319  -0.00777   0.00655   0.00858   0.02217
 Alpha virt. eigenvalues --    0.02843   0.03878   0.04143   0.06360   0.06580
 Alpha virt. eigenvalues --    0.07293   0.08390   0.08795   0.09897   0.11186

 Mulliken atomic charges:
              1
     1  C   -0.671588
     2  C    0.173385
     3  C    0.072274
     4  C   -0.592667
     5  H    0.122419
     6  H    0.153747
     7  H    0.131951
     8  H    0.159685
     9  H    0.218370
    10  H    0.155820
    11  H    0.134729
    12  Cl  -0.058124
 Sum of Mulliken atomic charges =   0.00000

 Dipole moment (field-independent basis, Debye):
    X=              1.7051    Y=              1.5736    Z=              0.3065  Tot=              2.3404
 Quadrupole moment (field-independent basis, Debye-Ang):
   XX=            -39.3779   YY=            -39.9838   ZZ=            -37.0997
   XY=             -2.3456   XZ=              0.0405   YZ=              0.1709

 Normal termination of Gaussian 09 at Wed Jul 10 17:40:25 2013.
