 Gaussian 09, Revision A.02,
 Gaussian 09:  EM64L-G09RevA.02 11-Jun-2009

 ----------------------------------------------------------------------
 #P B3LYP/6-311++G** scf(conver=11) int=ultrafine polar=optrot cphf(rdf
 req,conver=11)
 ----------------------------------------------------------------------

 -----------------------------
 (R)-3-chloro-1-butene tau=120
 -----------------------------
 Symbolic Z-matrix:
 Charge =  0 Multiplicity = 1

                         Standard orientation:
 ---------------------------------------------------------------------
 Center     Atomic      Atomic             Coordinates (Angstroms)
 Number     Number       Type             X           Y           Z
 ---------------------------------------------------------------------
      1          6           0        0.562926    1.727756    0.037375
      2          6           0       -0.008561    0.350201   -0.279215
      3          6           0       -1.233559   -0.086837    0.465006
      4          6           0       -2.348763   -0.427783   -0.182757
      5          1           0       -2.395231   -0.402782   -1.270500
      6          1           0        1.502966    1.869041   -0.509201
      7          1           0       -3.247997   -0.743068    0.339071
      8          1           0       -1.176119   -0.122680    1.551577
      9          1           0       -0.202380    0.267198   -1.348819
     10          1           0        0.761473    1.842651    1.106691
     11          1           0       -0.142297    2.510740   -0.272935
     12         17           0        1.356902   -0.858890    0.009510
 ---------------------------------------------------------------------

 SCF Done:  E(RB3LYP) =  -616.894435318     A.U. after   18 cycles

 The electronic state is 1-A.
 Alpha  occ. eigenvalues -- -101.53312 -10.24697 -10.19619 -10.18631 -10.18151
 Alpha  occ. eigenvalues --   -9.44776  -7.21207  -7.20268  -7.20250  -0.86802
 Alpha  occ. eigenvalues --   -0.78750  -0.73981  -0.63916  -0.57784  -0.48639
 Alpha  occ. eigenvalues --   -0.47438  -0.44289  -0.41698  -0.40405  -0.37465
 Alpha  occ. eigenvalues --   -0.36649  -0.30552  -0.29709  -0.28139
 Alpha virt. eigenvalues --   -0.03383  -0.00755   0.00618   0.00733   0.02331
 Alpha virt. eigenvalues --    0.02823   0.03829   0.04162   0.06296   0.06508
 Alpha virt. eigenvalues --    0.07064   0.08363   0.08704   0.10004   0.11056

 Mulliken atomic charges:
              1
     1  C   -0.670938
     2  C    0.120471
     3  C    0.128561
     4  C   -0.622376
     5  H    0.125648
     6  H    0.149162
     7  H    0.138205
     8  H    0.168629
     9  H    0.211594
    10  H    0.156672
    11  H    0.135323
    12  Cl  -0.040953
 Sum of Mulliken atomic charges =   0.00000

 Dipole moment (field-independent basis, Debye):
    X=             -1.6835    Y=              1.5554    Z=             -0.2897  Tot=              2.3103
 Quadrupole moment (field-independent basis, Debye-Ang):
   XX=            -39.1074   YY=            -40.3147   ZZ=            -37.1664
   XY=              2.4419   XZ=              0.0882   YZ=             -0.3390

 Normal termination of Gaussian 09 at Wed Jul 10 17:47:59 2013.
