 Gaussian 09, Revision A.02,
 Gaussian 09:  EM64L-G09RevA.02 11-Jun-2009

 ----------------------------------------------------------------------
 #P B3LYP/6-311++G** scf(conver=11) int=ultrafine polar=optrot cphf(rdf
 req,conver=11)
 ----------------------------------------------------------------------

 -----------------------------
 (R)-3-chloro-1-butene tau=120
 -----------------------------
 Symbolic Z-matrix:
 Charge =  0 Multiplicity = 1

                         Standard orientation:
 ---------------------------------------------------------------------
 Center     Atomic      Atomic             Coordinates (Angstroms)
 Number     Number       Type             X           Y           Z
 ---------------------------------------------------------------------
      1          6           0        0.475106    1.753610    0.034934
      2          6           0        0.002447    0.346284   -0.324173
      3          6           0       -1.193397   -0.089287    0.429825
      4          6           0       -2.329453   -0.492036   -0.148199
      5          1           0       -2.489510   -0.569182   -1.222983
      6          1           0        1.379579    2.014801   -0.515817
      7          1           0       -3.235247   -0.796140    0.372379
      8          1           0       -1.153135   -0.066324    1.517052
      9          1           0       -0.135385    0.268202   -1.401810
     10          1           0        0.667799    1.840499    1.106892
     11          1           0       -0.316211    2.472866   -0.200068
     12         17           0        1.385523   -0.839774    0.022943
 ---------------------------------------------------------------------

 SCF Done:  E(RB3LYP) =  -616.893753033     A.U. after   19 cycles

 The electronic state is 1-A.
 Alpha  occ. eigenvalues -- -101.53379 -10.24801 -10.19613 -10.18575 -10.18129
 Alpha  occ. eigenvalues --   -9.44824  -7.21258  -7.20316  -7.20299  -0.86825
 Alpha  occ. eigenvalues --   -0.78623  -0.74134  -0.64157  -0.58009  -0.48780
 Alpha  occ. eigenvalues --   -0.47714  -0.44366  -0.41607  -0.40148  -0.37415
 Alpha  occ. eigenvalues --   -0.36661  -0.30644  -0.29800  -0.27975
 Alpha virt. eigenvalues --   -0.03492  -0.00766   0.00574   0.00751   0.02153
 Alpha virt. eigenvalues --    0.02853   0.03829   0.04104   0.06329   0.06481
 Alpha virt. eigenvalues --    0.07258   0.08414   0.08921   0.09858   0.11071

 Mulliken atomic charges:
              1
     1  C   -0.682793
     2  C    0.177992
     3  C    0.073645
     4  C   -0.615956
     5  H    0.130066
     6  H    0.152733
     7  H    0.135823
     8  H    0.167983
     9  H    0.230120
    10  H    0.157586
    11  H    0.136308
    12  Cl  -0.063507
 Sum of Mulliken atomic charges =   0.00000

 Dipole moment (field-independent basis, Debye):
    X=             -1.7485    Y=              1.5638    Z=             -0.3484  Tot=              2.3715
 Quadrupole moment (field-independent basis, Debye-Ang):
   XX=            -39.1125   YY=            -40.0615   ZZ=            -37.2251
   XY=              2.4538   XZ=              0.1166   YZ=             -0.1323

 Normal termination of Gaussian 09 at Wed Jul 10 17:18:41 2013.
