 Gaussian 09, Revision A.02,
 Gaussian 09:  EM64L-G09RevA.02 11-Jun-2009

 ----------------------------------------------------------------------
 #P B3LYP/6-311++G** scf(conver=11) int=ultrafine polar=optrot cphf(rdf
 req,conver=11)
 ----------------------------------------------------------------------

 -----------------------------
 (R)-3-chloro-1-butene tau=120
 -----------------------------
 Symbolic Z-matrix:
 Charge =  0 Multiplicity = 1

                         Standard orientation:
 ---------------------------------------------------------------------
 Center     Atomic      Atomic             Coordinates (Angstroms)
 Number     Number       Type             X           Y           Z
 ---------------------------------------------------------------------
      1          6           0        0.466772    1.754424    0.038681
      2          6           0        0.005057    0.349885   -0.325790
      3          6           0       -1.205673   -0.098049    0.425028
      4          6           0       -2.336189   -0.501820   -0.159210
      5          1           0       -2.423812   -0.551684   -1.182478
      6          1           0        1.366913    2.021712   -0.507003
      7          1           0       -3.162810   -0.780533    0.401795
      8          1           0       -1.127911   -0.062031    1.526702
      9          1           0       -0.155020    0.258347   -1.389370
     10          1           0        0.674272    1.832510    1.113829
     11          1           0       -0.321951    2.468871   -0.213884
     12         17           0        1.386501   -0.836108    0.022244
 ---------------------------------------------------------------------

 SCF Done:  E(RB3LYP) =  -616.891619640     A.U. after   20 cycles

 The electronic state is 1-A.
 Alpha  occ. eigenvalues -- -101.53400 -10.24645 -10.19564 -10.18115 -10.17394
 Alpha  occ. eigenvalues --   -9.44842  -7.21276  -7.20334  -7.20318  -0.86760
 Alpha  occ. eigenvalues --   -0.78793  -0.74328  -0.64421  -0.58030  -0.48876
 Alpha  occ. eigenvalues --   -0.48033  -0.44624  -0.41649  -0.40541  -0.37535
 Alpha  occ. eigenvalues --   -0.36914  -0.30598  -0.29860  -0.27975
 Alpha virt. eigenvalues --   -0.03336  -0.00729   0.00712   0.00771   0.02195
 Alpha virt. eigenvalues --    0.02852   0.03899   0.04166   0.06417   0.06528
 Alpha virt. eigenvalues --    0.07296   0.08376   0.08888   0.09888   0.11104

 Mulliken atomic charges:
              1
     1  C   -0.673763
     2  C    0.170869
     3  C    0.082155
     4  C   -0.600887
     5  H    0.122483
     6  H    0.154191
     7  H    0.129050
     8  H    0.161325
     9  H    0.222739
    10  H    0.155299
    11  H    0.134883
    12  Cl  -0.058344
 Sum of Mulliken atomic charges =   0.00000

 Dipole moment (field-independent basis, Debye):
    X=             -1.7178    Y=              1.5666    Z=             -0.3579  Tot=              2.3522
 Quadrupole moment (field-independent basis, Debye-Ang):
   XX=            -39.2987   YY=            -39.9636   ZZ=            -37.1154
   XY=              2.3699   XZ=              0.1145   YZ=             -0.1917

 Normal termination of Gaussian 09 at Wed Jul 10 17:17:34 2013.
