 Gaussian 09, Revision A.02,
 Gaussian 09:  EM64L-G09RevA.02 11-Jun-2009

 ----------------------------------------------------------------------
 #P B3LYP/6-311++G** scf(conver=11) int=ultrafine polar=optrot cphf(rdf
 req,conver=11)
 ----------------------------------------------------------------------

 -----------------------------
 (R)-3-chloro-1-butene tau=120
 -----------------------------
 Symbolic Z-matrix:
 Charge =  0 Multiplicity = 1

                         Standard orientation:
 ---------------------------------------------------------------------
 Center     Atomic      Atomic             Coordinates (Angstroms)
 Number     Number       Type             X           Y           Z
 ---------------------------------------------------------------------
      1          6           0        0.470982    1.753589    0.041658
      2          6           0        0.007212    0.350555   -0.324960
      3          6           0       -1.206252   -0.095862    0.422817
      4          6           0       -2.328813   -0.494025   -0.167356
      5          1           0       -2.421912   -0.545270   -1.198996
      6          1           0        1.376653    2.020785   -0.505002
      7          1           0       -3.245316   -0.801223    0.450275
      8          1           0       -1.130045   -0.061098    1.517948
      9          1           0       -0.152345    0.259616   -1.397215
     10          1           0        0.676016    1.829868    1.112038
     11          1           0       -0.316029    2.470389   -0.212114
     12         17           0        1.385542   -0.838742    0.023536
 ---------------------------------------------------------------------

 SCF Done:  E(RB3LYP) =  -616.891819010     A.U. after   20 cycles

 The electronic state is 1-A.
 Alpha  occ. eigenvalues -- -101.53425 -10.24765 -10.19495 -10.18510 -10.18149
 Alpha  occ. eigenvalues --   -9.44867  -7.21301  -7.20359  -7.20343  -0.86788
 Alpha  occ. eigenvalues --   -0.78727  -0.74238  -0.63910  -0.57928  -0.48239
 Alpha  occ. eigenvalues --   -0.47837  -0.44362  -0.41595  -0.40418  -0.37579
 Alpha  occ. eigenvalues --   -0.36515  -0.30621  -0.29875  -0.28077
 Alpha virt. eigenvalues --   -0.03265  -0.00796   0.00562   0.00713   0.02210
 Alpha virt. eigenvalues --    0.02837   0.03836   0.04125   0.06309   0.06523
 Alpha virt. eigenvalues --    0.07261   0.08339   0.08775   0.09874   0.11013

 Mulliken atomic charges:
              1
     1  C   -0.675580
     2  C    0.169102
     3  C    0.100090
     4  C   -0.623851
     5  H    0.126615
     6  H    0.153723
     7  H    0.130413
     8  H    0.164880
     9  H    0.222230
    10  H    0.155986
    11  H    0.135068
    12  Cl  -0.058675
 Sum of Mulliken atomic charges =   0.00000

 Dipole moment (field-independent basis, Debye):
    X=             -1.6741    Y=              1.5838    Z=             -0.3611  Tot=              2.3327
 Quadrupole moment (field-independent basis, Debye-Ang):
   XX=            -39.5060   YY=            -40.0748   ZZ=            -37.1294
   XY=              2.3394   XZ=              0.1145   YZ=             -0.1790

 Normal termination of Gaussian 09 at Wed Jul 10 17:48:47 2013.
