 Gaussian 09, Revision A.02,
 Gaussian 09:  EM64L-G09RevA.02 11-Jun-2009

 ----------------------------------------------------------------------
 #P B3LYP/6-311++G** scf(conver=11) int=ultrafine polar=optrot cphf(rdf
 req,conver=11)
 ----------------------------------------------------------------------

 -----------------------------
 (R)-3-chloro-1-butene tau=120
 -----------------------------
 Symbolic Z-matrix:
 Charge =  0 Multiplicity = 1

                         Standard orientation:
 ---------------------------------------------------------------------
 Center     Atomic      Atomic             Coordinates (Angstroms)
 Number     Number       Type             X           Y           Z
 ---------------------------------------------------------------------
      1          6           0        0.468822    1.754055    0.038732
      2          6           0        0.005668    0.349994   -0.325974
      3          6           0       -1.206527   -0.097089    0.420208
      4          6           0       -2.331788   -0.497563   -0.154867
      5          1           0       -2.429879   -0.552440   -1.257106
      6          1           0        1.371475    2.021128   -0.508224
      7          1           0       -3.201049   -0.789786    0.428532
      8          1           0       -1.123765   -0.058958    1.578929
      9          1           0       -0.154047    0.258822   -1.387860
     10          1           0        0.676542    1.832006    1.113582
     11          1           0       -0.318633    2.469010   -0.213798
     12         17           0        1.386018   -0.837422    0.022197
 ---------------------------------------------------------------------

 SCF Done:  E(RB3LYP) =  -616.892321985     A.U. after   19 cycles

 The electronic state is 1-A.
 Alpha  occ. eigenvalues -- -101.53425 -10.24719 -10.20037 -10.18638 -10.18155
 Alpha  occ. eigenvalues --   -9.44866  -7.21302  -7.20357  -7.20342  -0.86782
 Alpha  occ. eigenvalues --   -0.78651  -0.74242  -0.64024  -0.57064  -0.48546
 Alpha  occ. eigenvalues --   -0.47399  -0.44525  -0.41654  -0.40000  -0.37440
 Alpha  occ. eigenvalues --   -0.36401  -0.30654  -0.29882  -0.28145
 Alpha virt. eigenvalues --   -0.03235  -0.00742   0.00524   0.00615   0.02165
 Alpha virt. eigenvalues --    0.02836   0.03855   0.04070   0.06348   0.06421
 Alpha virt. eigenvalues --    0.07256   0.08266   0.08738   0.09871   0.10857

 Mulliken atomic charges:
              1
     1  C   -0.679461
     2  C    0.168636
     3  C    0.129112
     4  C   -0.652340
     5  H    0.127621
     6  H    0.154020
     7  H    0.134740
     8  H    0.163683
     9  H    0.223520
    10  H    0.155816
    11  H    0.135335
    12  Cl  -0.060682
 Sum of Mulliken atomic charges =   0.00000

 Dipole moment (field-independent basis, Debye):
    X=             -1.6988    Y=              1.5729    Z=             -0.3598  Tot=              2.3430
 Quadrupole moment (field-independent basis, Debye-Ang):
   XX=            -39.4124   YY=            -40.1152   ZZ=            -37.1792
   XY=              2.3828   XZ=              0.0717   YZ=             -0.2092

 Normal termination of Gaussian 09 at Wed Jul 10 17:40:26 2013.
