 Gaussian 09, Revision A.02,
 Gaussian 09:  EM64L-G09RevA.02 11-Jun-2009

 ----------------------------------------------------------------------
 #P B3LYP/6-311++G** scf(conver=11) int=ultrafine polar=optrot cphf(rdf
 req,conver=11)
 ----------------------------------------------------------------------

 -----------------------------
 (R)-3-chloro-1-butene tau=120
 -----------------------------
 Symbolic Z-matrix:
 Charge =  0 Multiplicity = 1

                         Standard orientation:
 ---------------------------------------------------------------------
 Center     Atomic      Atomic             Coordinates (Angstroms)
 Number     Number       Type             X           Y           Z
 ---------------------------------------------------------------------
      1          6           0        0.461084    1.755575    0.038933
      2          6           0        0.005126    0.347117   -0.323689
      3          6           0       -1.206286   -0.098560    0.426894
      4          6           0       -2.321603   -0.531094   -0.156407
      5          1           0       -2.462614   -0.471592   -1.238197
      6          1           0        1.366556    2.029188   -0.504918
      7          1           0       -3.218680   -0.726268    0.429095
      8          1           0       -1.135129   -0.058292    1.511212
      9          1           0       -0.156455    0.245979   -1.396252
     10          1           0        0.666314    1.826792    1.109556
     11          1           0       -0.328878    2.471000   -0.209333
     12         17           0        1.390527   -0.832649    0.022615
 ---------------------------------------------------------------------

 SCF Done:  E(RB3LYP) =  -616.894250999     A.U. after   19 cycles

 The electronic state is 1-A.
 Alpha  occ. eigenvalues -- -101.53406 -10.24748 -10.19459 -10.18500 -10.18178
 Alpha  occ. eigenvalues --   -9.44850  -7.21285  -7.20342  -7.20325  -0.86773
 Alpha  occ. eigenvalues --   -0.78723  -0.74225  -0.64002  -0.57760  -0.48513
 Alpha  occ. eigenvalues --   -0.47566  -0.44541  -0.41553  -0.40288  -0.37601
 Alpha  occ. eigenvalues --   -0.36645  -0.30622  -0.29854  -0.28066
 Alpha virt. eigenvalues --   -0.03411  -0.00802   0.00607   0.00714   0.02205
 Alpha virt. eigenvalues --    0.02808   0.03867   0.04118   0.06326   0.06449
 Alpha virt. eigenvalues --    0.07314   0.08286   0.08859   0.10002   0.10963

 Mulliken atomic charges:
              1
     1  C   -0.680066
     2  C    0.191784
     3  C    0.070019
     4  C   -0.599360
     5  H    0.119950
     6  H    0.155922
     7  H    0.129035
     8  H    0.165033
     9  H    0.222329
    10  H    0.156146
    11  H    0.134369
    12  Cl  -0.065163
 Sum of Mulliken atomic charges =   0.00000

 Dipole moment (field-independent basis, Debye):
    X=             -1.7380    Y=              1.7177    Z=             -0.3169  Tot=              2.4641
 Quadrupole moment (field-independent basis, Debye-Ang):
   XX=            -39.2100   YY=            -40.2399   ZZ=            -37.1681
   XY=              1.9189   XZ=              0.0515   YZ=             -0.2495

 Normal termination of Gaussian 09 at Wed Jul 10 17:48:28 2013.
