 Gaussian 09, Revision A.02,
 Gaussian 09:  EM64L-G09RevA.02 11-Jun-2009

 ----------------------------------------------------------------------
 #P B3LYP/6-311++G** scf(conver=11) int=ultrafine polar=optrot cphf(rdf
 req,conver=11)
 ----------------------------------------------------------------------

 -----------------------------
 (R)-3-chloro-1-butene tau=120
 -----------------------------
 Symbolic Z-matrix:
 Charge =  0 Multiplicity = 1

                         Standard orientation:
 ---------------------------------------------------------------------
 Center     Atomic      Atomic             Coordinates (Angstroms)
 Number     Number       Type             X           Y           Z
 ---------------------------------------------------------------------
      1          6           0        0.483539    1.742100    0.039586
      2          6           0        0.006127    0.367646   -0.324024
      3          6           0       -1.203455   -0.108535    0.432461
      4          6           0       -2.330221   -0.494064   -0.164385
      5          1           0       -2.458459   -0.544045   -1.241451
      6          1           0        1.378316    2.080312   -0.488315
      7          1           0       -3.179806   -0.788910    0.442020
      8          1           0       -1.174825   -0.036497    1.518959
      9          1           0       -0.181852    0.281843   -1.394267
     10          1           0        0.643434    1.813368    1.118591
     11          1           0       -0.350046    2.411852   -0.207925
     12         17           0        1.387489   -0.838871    0.020621
 ---------------------------------------------------------------------

 SCF Done:  E(RB3LYP) =  -616.893902200     A.U. after   19 cycles

 The electronic state is 1-A.
 Alpha  occ. eigenvalues -- -101.53149 -10.24812 -10.19605 -10.18512 -10.18159
 Alpha  occ. eigenvalues --   -9.44585  -7.21014  -7.20081  -7.20063  -0.86615
 Alpha  occ. eigenvalues --   -0.78628  -0.74576  -0.63857  -0.57805  -0.48522
 Alpha  occ. eigenvalues --   -0.47778  -0.44813  -0.41698  -0.40363  -0.37475
 Alpha  occ. eigenvalues --   -0.36452  -0.30531  -0.29708  -0.28030
 Alpha virt. eigenvalues --   -0.03372  -0.00824   0.00604   0.00669   0.02125
 Alpha virt. eigenvalues --    0.02932   0.03804   0.04065   0.06347   0.06387
 Alpha virt. eigenvalues --    0.07271   0.08335   0.08721   0.09806   0.11211

 Mulliken atomic charges:
              1
     1  C   -0.692498
     2  C    0.166573
     3  C    0.107651
     4  C   -0.609295
     5  H    0.128836
     6  H    0.155589
     7  H    0.131116
     8  H    0.165470
     9  H    0.222958
    10  H    0.155654
    11  H    0.134514
    12  Cl  -0.066568
 Sum of Mulliken atomic charges =   0.00000

 Dipole moment (field-independent basis, Debye):
    X=             -1.8113    Y=              1.6826    Z=             -0.3231  Tot=              2.4933
 Quadrupole moment (field-independent basis, Debye-Ang):
   XX=            -39.3676   YY=            -40.1231   ZZ=            -37.0812
   XY=              2.4917   XZ=              0.0576   YZ=             -0.2245

 Normal termination of Gaussian 09 at Wed Jul 10 17:19:03 2013.
