 Gaussian 09, Revision A.02,
 Gaussian 09:  EM64L-G09RevA.02 11-Jun-2009

 ----------------------------------------------------------------------
 #P B3LYP/6-311++G** scf(conver=11) int=ultrafine polar=optrot cphf(rdf
 req,conver=11)
 ----------------------------------------------------------------------

 -----------------------------
 (R)-3-chloro-1-butene tau=120
 -----------------------------
 Symbolic Z-matrix:
 Charge =  0 Multiplicity = 1

                         Standard orientation:
 ---------------------------------------------------------------------
 Center     Atomic      Atomic             Coordinates (Angstroms)
 Number     Number       Type             X           Y           Z
 ---------------------------------------------------------------------
      1          6           0        0.464187    1.755602    0.042853
      2          6           0        0.006337    0.346230   -0.324760
      3          6           0       -1.201530   -0.109003    0.425214
      4          6           0       -2.334994   -0.497705   -0.152869
      5          1           0       -2.429372   -0.502297   -1.235739
      6          1           0        1.369960    2.002858   -0.514166
      7          1           0       -3.191458   -0.843779    0.416401
      8          1           0       -1.149866    0.033933    1.507557
      9          1           0       -0.141058    0.252644   -1.400073
     10          1           0        0.686332    1.839480    1.109117
     11          1           0       -0.311435    2.483133   -0.215162
     12         17           0        1.386053   -0.837454    0.022908
 ---------------------------------------------------------------------

 SCF Done:  E(RB3LYP) =  -616.894411902     A.U. after   20 cycles

 The electronic state is 1-A.
 Alpha  occ. eigenvalues -- -101.53439 -10.24752 -10.19423 -10.18418 -10.18174
 Alpha  occ. eigenvalues --   -9.44885  -7.21320  -7.20375  -7.20360  -0.86795
 Alpha  occ. eigenvalues --   -0.78701  -0.74172  -0.64017  -0.57745  -0.48567
 Alpha  occ. eigenvalues --   -0.47531  -0.44512  -0.41642  -0.40236  -0.37742
 Alpha  occ. eigenvalues --   -0.36652  -0.30489  -0.29871  -0.28037
 Alpha virt. eigenvalues --   -0.03338  -0.00795   0.00611   0.00724   0.02291
 Alpha virt. eigenvalues --    0.02885   0.03835   0.04134   0.06434   0.06491
 Alpha virt. eigenvalues --    0.07128   0.08372   0.08742   0.09840   0.11079

 Mulliken atomic charges:
              1
     1  C   -0.695783
     2  C    0.175924
     3  C    0.113339
     4  C   -0.628199
     5  H    0.122773
     6  H    0.154174
     7  H    0.136603
     8  H    0.160509
     9  H    0.222898
    10  H    0.154386
    11  H    0.136896
    12  Cl  -0.053520
 Sum of Mulliken atomic charges =   0.00000

 Dipole moment (field-independent basis, Debye):
    X=             -1.6954    Y=              1.6285    Z=             -0.3405  Tot=              2.3753
 Quadrupole moment (field-independent basis, Debye-Ang):
   XX=            -39.3857   YY=            -40.0053   ZZ=            -37.1980
   XY=              2.2849   XZ=              0.0340   YZ=             -0.1406

 Normal termination of Gaussian 09 at Wed Jul 10 17:19:37 2013.
