 Gaussian 09, Revision A.02,
 Gaussian 09:  EM64L-G09RevA.02 11-Jun-2009

 ----------------------------------------------------------------------
 #P B3LYP/6-311++G** scf(conver=11) int=ultrafine polar=optrot cphf(rdf
 req,conver=11)
 ----------------------------------------------------------------------

 -----------------------------
 (R)-3-chloro-1-butene tau=120
 -----------------------------
 Symbolic Z-matrix:
 Charge =  0 Multiplicity = 1

                         Standard orientation:
 ---------------------------------------------------------------------
 Center     Atomic      Atomic             Coordinates (Angstroms)
 Number     Number       Type             X           Y           Z
 ---------------------------------------------------------------------
      1          6           0        0.487971    1.762698    0.046218
      2          6           0       -0.010492    0.322901   -0.338896
      3          6           0       -1.204471   -0.089454    0.430808
      4          6           0       -2.327767   -0.491921   -0.150453
      5          1           0       -2.447178   -0.549203   -1.227772
      6          1           0        1.366782    2.046592   -0.537645
      7          1           0       -3.177984   -0.781030    0.456344
      8          1           0       -1.117847   -0.046634    1.513024
      9          1           0       -0.211305    0.254251   -1.409797
     10          1           0        0.692349    1.914937    1.110028
     11          1           0       -0.324956    2.438623   -0.248908
     12         17           0        1.385217   -0.841346    0.024628
 ---------------------------------------------------------------------

 SCF Done:  E(RB3LYP) =  -616.893062725     A.U. after   19 cycles

 The electronic state is 1-A.
 Alpha  occ. eigenvalues -- -101.53400 -10.24955 -10.19282 -10.18393 -10.18364
 Alpha  occ. eigenvalues --   -9.44835  -7.21272  -7.20328  -7.20307  -0.86547
 Alpha  occ. eigenvalues --   -0.78878  -0.73588  -0.64228  -0.57787  -0.48421
 Alpha  occ. eigenvalues --   -0.47450  -0.44209  -0.40892  -0.40530  -0.37987
 Alpha  occ. eigenvalues --   -0.36802  -0.30545  -0.29588  -0.28151
 Alpha virt. eigenvalues --   -0.03340  -0.00773   0.00585   0.00702   0.02352
 Alpha virt. eigenvalues --    0.02869   0.03887   0.04087   0.06293   0.06476
 Alpha virt. eigenvalues --    0.07221   0.08368   0.08750   0.09793   0.10963

 Mulliken atomic charges:
              1
     1  C   -0.665371
     2  C    0.177283
     3  C    0.074765
     4  C   -0.624076
     5  H    0.125648
     6  H    0.156176
     7  H    0.131842
     8  H    0.167823
     9  H    0.226880
    10  H    0.157789
    11  H    0.134412
    12  Cl  -0.063171
 Sum of Mulliken atomic charges =   0.00000

 Dipole moment (field-independent basis, Debye):
    X=             -1.7339    Y=              1.5458    Z=             -0.3206  Tot=              2.3449
 Quadrupole moment (field-independent basis, Debye-Ang):
   XX=            -39.4347   YY=            -40.2157   ZZ=            -36.9591
   XY=              2.4401   XZ=              0.1939   YZ=             -0.1141

 Normal termination of Gaussian 09 at Wed Jul 10 17:19:20 2013.
