 Gaussian 09, Revision A.02,
 Gaussian 09:  EM64L-G09RevA.02 11-Jun-2009

 ----------------------------------------------------------------------
 #P B3LYP/6-311++G** scf(conver=11) int=ultrafine polar=optrot cphf(rdf
 req,conver=11)
 ----------------------------------------------------------------------

 -----------------------------
 (R)-3-chloro-1-butene tau=120
 -----------------------------
 Symbolic Z-matrix:
 Charge =  0 Multiplicity = 1

                         Standard orientation:
 ---------------------------------------------------------------------
 Center     Atomic      Atomic             Coordinates (Angstroms)
 Number     Number       Type             X           Y           Z
 ---------------------------------------------------------------------
      1          6           0        0.467770    1.754972    0.036246
      2          6           0        0.006509    0.350789   -0.320126
      3          6           0       -1.206110   -0.095023    0.426410
      4          6           0       -2.333610   -0.494786   -0.156038
      5          1           0       -2.429132   -0.548186   -1.233831
      6          1           0        1.379570    2.021896   -0.512351
      7          1           0       -3.198600   -0.784305    0.426300
      8          1           0       -1.128522   -0.059315    1.516481
      9          1           0       -0.162256    0.253556   -1.448102
     10          1           0        0.684630    1.833656    1.149811
     11          1           0       -0.292807    2.448984   -0.206140
     12         17           0        1.384692   -0.838941    0.022875
 ---------------------------------------------------------------------

 SCF Done:  E(RB3LYP) =  -616.892143657     A.U. after   20 cycles

 The electronic state is 1-A.
 Alpha  occ. eigenvalues -- -101.53433 -10.25250 -10.19482 -10.18388 -10.18282
 Alpha  occ. eigenvalues --   -9.44873  -7.21310  -7.20364  -7.20347  -0.86663
 Alpha  occ. eigenvalues --   -0.78724  -0.74247  -0.63845  -0.57267  -0.48716
 Alpha  occ. eigenvalues --   -0.47335  -0.44571  -0.41782  -0.40028  -0.37159
 Alpha  occ. eigenvalues --   -0.36733  -0.30596  -0.29813  -0.28071
 Alpha virt. eigenvalues --   -0.03313  -0.00760   0.00529   0.00653   0.02182
 Alpha virt. eigenvalues --    0.02820   0.03863   0.04056   0.06275   0.06472
 Alpha virt. eigenvalues --    0.07266   0.08259   0.08743   0.09912   0.11069

 Mulliken atomic charges:
              1
     1  C   -0.683245
     2  C    0.172158
     3  C    0.118413
     4  C   -0.635041
     5  H    0.125051
     6  H    0.154604
     7  H    0.133782
     8  H    0.166805
     9  H    0.211283
    10  H    0.151115
    11  H    0.140374
    12  Cl  -0.055299
 Sum of Mulliken atomic charges =   0.00000

 Dipole moment (field-independent basis, Debye):
    X=             -1.7107    Y=              1.5757    Z=             -0.3307  Tot=              2.3492
 Quadrupole moment (field-independent basis, Debye-Ang):
   XX=            -39.4134   YY=            -40.0437   ZZ=            -37.1943
   XY=              2.3399   XZ=              0.0234   YZ=             -0.2298

 Normal termination of Gaussian 09 at Wed Jul 10 17:28:31 2013.
