 Gaussian 09, Revision A.02,
 Gaussian 09:  EM64L-G09RevA.02 11-Jun-2009

 ----------------------------------------------------------------------
 #P B3LYP/6-311++G** scf(conver=11) int=ultrafine polar=optrot cphf(rdf
 req,conver=11)
 ----------------------------------------------------------------------

 -----------------------------
 (R)-3-chloro-1-butene tau=120
 -----------------------------
 Symbolic Z-matrix:
 Charge =  0 Multiplicity = 1

                         Standard orientation:
 ---------------------------------------------------------------------
 Center     Atomic      Atomic             Coordinates (Angstroms)
 Number     Number       Type             X           Y           Z
 ---------------------------------------------------------------------
      1          6           0        0.470058    1.752463    0.054533
      2          6           0        0.003343    0.350212   -0.318820
      3          6           0       -1.204287   -0.096553    0.427622
      4          6           0       -2.333075   -0.492550   -0.155171
      5          1           0       -2.438876   -0.543407   -1.234675
      6          1           0        1.353339    2.068891   -0.508244
      7          1           0       -3.205045   -0.787490    0.417233
      8          1           0       -1.128985   -0.068529    1.511989
      9          1           0       -0.147308    0.273308   -1.394648
     10          1           0        0.704317    1.777819    1.120640
     11          1           0       -0.286338    2.480143   -0.265088
     12         17           0        1.384274   -0.840128    0.017871
 ---------------------------------------------------------------------

 SCF Done:  E(RB3LYP) =  -616.893984128     A.U. after   19 cycles

 The electronic state is 1-A.
 Alpha  occ. eigenvalues -- -101.53387 -10.24721 -10.19419 -10.18423 -10.18190
 Alpha  occ. eigenvalues --   -9.44831  -7.21264  -7.20323  -7.20306  -0.86778
 Alpha  occ. eigenvalues --   -0.78714  -0.74213  -0.64060  -0.57794  -0.48855
 Alpha  occ. eigenvalues --   -0.47544  -0.44443  -0.42000  -0.39824  -0.37787
 Alpha  occ. eigenvalues --   -0.36387  -0.30624  -0.29811  -0.28051
 Alpha virt. eigenvalues --   -0.03325  -0.00790   0.00615   0.00734   0.02203
 Alpha virt. eigenvalues --    0.02855   0.03879   0.04083   0.06380   0.06510
 Alpha virt. eigenvalues --    0.07330   0.08279   0.08784   0.09858   0.11040

 Mulliken atomic charges:
              1
     1  C   -0.661289
     2  C    0.162922
     3  C    0.100479
     4  C   -0.625424
     5  H    0.126159
     6  H    0.157099
     7  H    0.133666
     8  H    0.165003
     9  H    0.220138
    10  H    0.147828
    11  H    0.134298
    12  Cl  -0.060878
 Sum of Mulliken atomic charges =   0.00000

 Dipole moment (field-independent basis, Debye):
    X=             -1.6963    Y=              1.5836    Z=             -0.3683  Tot=              2.3496
 Quadrupole moment (field-independent basis, Debye-Ang):
   XX=            -39.4274   YY=            -40.0087   ZZ=            -37.0897
   XY=              2.4666   XZ=              0.1527   YZ=             -0.4620

 Normal termination of Gaussian 09 at Wed Jul 10 17:28:51 2013.
