 Gaussian 09, Revision A.02,
 Gaussian 09:  EM64L-G09RevA.02 11-Jun-2009

 ----------------------------------------------------------------------
 #P B3LYP/6-311++G** scf(conver=11) int=ultrafine polar=optrot cphf(rdf
 req,conver=11)
 ----------------------------------------------------------------------

 -----------------------------
 (R)-3-chloro-1-butene tau=120
 -----------------------------
 Symbolic Z-matrix:
 Charge =  0 Multiplicity = 1

                         Standard orientation:
 ---------------------------------------------------------------------
 Center     Atomic      Atomic             Coordinates (Angstroms)
 Number     Number       Type             X           Y           Z
 ---------------------------------------------------------------------
      1          6           0        0.450088    1.745228    0.033128
      2          6           0        0.022137    0.377219   -0.309523
      3          6           0       -1.206889   -0.103741    0.423013
      4          6           0       -2.337480   -0.503427   -0.161113
      5          1           0       -2.409375   -0.553388   -1.243891
      6          1           0        1.380206    1.996035   -0.480325
      7          1           0       -3.218872   -0.795982    0.398518
      8          1           0       -1.139034   -0.075294    1.508856
      9          1           0       -0.099748    0.261424   -1.385631
     10          1           0        0.659663    1.748153    1.108004
     11          1           0       -0.313670    2.500587   -0.177532
     12         17           0        1.386687   -0.833718    0.021116
 ---------------------------------------------------------------------

 SCF Done:  E(RB3LYP) =  -616.892809874     A.U. after   17 cycles

 The electronic state is 1-A.
 Alpha  occ. eigenvalues -- -101.53435 -10.24582 -10.19522 -10.18422 -10.17974
 Alpha  occ. eigenvalues --   -9.44885  -7.21316  -7.20375  -7.20362  -0.87050
 Alpha  occ. eigenvalues --   -0.78559  -0.74902  -0.63722  -0.57794  -0.48802
 Alpha  occ. eigenvalues --   -0.47800  -0.44821  -0.42428  -0.40070  -0.36974
 Alpha  occ. eigenvalues --   -0.36474  -0.30782  -0.29958  -0.27942
 Alpha virt. eigenvalues --   -0.03231  -0.00750   0.00653   0.00750   0.01941
 Alpha virt. eigenvalues --    0.02803   0.03844   0.04139   0.06407   0.06507
 Alpha virt. eigenvalues --    0.07301   0.08268   0.08777   0.09933   0.11171

 Mulliken atomic charges:
              1
     1  C   -0.689879
     2  C    0.168033
     3  C    0.123096
     4  C   -0.623893
     5  H    0.125414
     6  H    0.152140
     7  H    0.134443
     8  H    0.162699
     9  H    0.214328
    10  H    0.152636
    11  H    0.136904
    12  Cl  -0.055922
 Sum of Mulliken atomic charges =   0.00000

 Dipole moment (field-independent basis, Debye):
    X=             -1.6701    Y=              1.6007    Z=             -0.3348  Tot=              2.3374
 Quadrupole moment (field-independent basis, Debye-Ang):
   XX=            -39.3809   YY=            -39.8846   ZZ=            -37.3412
   XY=              2.2841   XZ=             -0.0927   YZ=             -0.2646

 Normal termination of Gaussian 09 at Wed Jul 10 17:19:09 2013.
