 Gaussian 09, Revision A.02,
 Gaussian 09:  EM64L-G09RevA.02 11-Jun-2009

 ----------------------------------------------------------------------
 #P B3LYP/6-311++G** scf(conver=11) int=ultrafine polar=optrot cphf(rdf
 req,conver=11)
 ----------------------------------------------------------------------

 -----------------------------
 (R)-3-chloro-1-butene tau=120
 -----------------------------
 Symbolic Z-matrix:
 Charge =  0 Multiplicity = 1

                         Standard orientation:
 ---------------------------------------------------------------------
 Center     Atomic      Atomic             Coordinates (Angstroms)
 Number     Number       Type             X           Y           Z
 ---------------------------------------------------------------------
      1          6           0        0.476037    1.752505    0.040883
      2          6           0        0.006626    0.353104   -0.325030
      3          6           0       -1.205120   -0.095282    0.426829
      4          6           0       -2.343162   -0.465219   -0.155425
      5          1           0       -2.394357   -0.632411   -1.233878
      6          1           0        1.379474    2.014308   -0.512391
      7          1           0       -3.178631   -0.852619    0.425439
      8          1           0       -1.121991   -0.064392    1.510671
      9          1           0       -0.154395    0.269648   -1.399449
     10          1           0        0.684325    1.836419    1.109673
     11          1           0       -0.310584    2.468311   -0.217156
     12         17           0        1.381757   -0.841759    0.023150
 ---------------------------------------------------------------------

 SCF Done:  E(RB3LYP) =  -616.894252727     A.U. after   19 cycles

 The electronic state is 1-A.
 Alpha  occ. eigenvalues -- -101.53469 -10.24788 -10.19487 -10.18459 -10.18130
 Alpha  occ. eigenvalues --   -9.44909  -7.21343  -7.20401  -7.20385  -0.86791
 Alpha  occ. eigenvalues --   -0.78712  -0.74277  -0.63962  -0.57770  -0.48539
 Alpha  occ. eigenvalues --   -0.47529  -0.44484  -0.41765  -0.40252  -0.37540
 Alpha  occ. eigenvalues --   -0.36580  -0.30647  -0.29906  -0.28102
 Alpha virt. eigenvalues --   -0.03390  -0.00735   0.00634   0.00735   0.02065
 Alpha virt. eigenvalues --    0.02861   0.03904   0.04122   0.06410   0.06524
 Alpha virt. eigenvalues --    0.07199   0.08312   0.08672   0.09744   0.11166

 Mulliken atomic charges:
              1
     1  C   -0.681007
     2  C    0.156023
     3  C    0.112068
     4  C   -0.632698
     5  H    0.122091
     6  H    0.153646
     7  H    0.136239
     8  H    0.166589
     9  H    0.223926
    10  H    0.154576
    11  H    0.135780
    12  Cl  -0.047233
 Sum of Mulliken atomic charges =   0.00000

 Dipole moment (field-independent basis, Debye):
    X=             -1.5990    Y=              1.4481    Z=             -0.3149  Tot=              2.1801
 Quadrupole moment (field-independent basis, Debye-Ang):
   XX=            -39.8268   YY=            -39.8474   ZZ=            -37.1630
   XY=              2.7303   XZ=             -0.0098   YZ=             -0.1411

 Normal termination of Gaussian 09 at Wed Jul 10 17:49:06 2013.
