 Gaussian 09, Revision A.02,
 Gaussian 09:  EM64L-G09RevA.02 11-Jun-2009

 ----------------------------------------------------------------------
 #P B3LYP/6-311++G** scf(conver=11) int=ultrafine polar=optrot cphf(rdf
 req,conver=11)
 ----------------------------------------------------------------------

 -----------------------------
 (R)-3-chloro-1-butene tau=120
 -----------------------------
 Symbolic Z-matrix:
 Charge =  0 Multiplicity = 1

                         Standard orientation:
 ---------------------------------------------------------------------
 Center     Atomic      Atomic             Coordinates (Angstroms)
 Number     Number       Type             X           Y           Z
 ---------------------------------------------------------------------
      1          6           0        0.453912    1.765930    0.040174
      2          6           0        0.005694    0.332579   -0.324560
      3          6           0       -1.207984   -0.085121    0.421164
      4          6           0       -2.334882   -0.501832   -0.147452
      5          1           0       -2.397812   -0.559079   -1.230645
      6          1           0        1.368219    1.962811   -0.528506
      7          1           0       -3.217031   -0.789320    0.412487
      8          1           0       -1.082238   -0.085923    1.503086
      9          1           0       -0.129011    0.233847   -1.401289
     10          1           0        0.707464    1.849750    1.100517
     11          1           0       -0.289000    2.527593   -0.219017
     12         17           0        1.384645   -0.835824    0.025142
 ---------------------------------------------------------------------

 SCF Done:  E(RB3LYP) =  -616.893927679     A.U. after   19 cycles

 The electronic state is 1-A.
 Alpha  occ. eigenvalues -- -101.53663 -10.24732 -10.19248 -10.18325 -10.18222
 Alpha  occ. eigenvalues --   -9.45114  -7.21552  -7.20602  -7.20588  -0.86946
 Alpha  occ. eigenvalues --   -0.78789  -0.73897  -0.64106  -0.57744  -0.48645
 Alpha  occ. eigenvalues --   -0.47423  -0.44288  -0.41750  -0.40103  -0.37630
 Alpha  occ. eigenvalues --   -0.36650  -0.30698  -0.29999  -0.28028
 Alpha virt. eigenvalues --   -0.03195  -0.00698   0.00638   0.00780   0.02216
 Alpha virt. eigenvalues --    0.02748   0.03918   0.04148   0.06370   0.06572
 Alpha virt. eigenvalues --    0.07240   0.08335   0.08788   0.09940   0.10954

 Mulliken atomic charges:
              1
     1  C   -0.666517
     2  C    0.187626
     3  C    0.079726
     4  C   -0.629935
     5  H    0.121002
     6  H    0.153119
     7  H    0.136486
     8  H    0.160316
     9  H    0.218135
    10  H    0.156819
    11  H    0.136706
    12  Cl  -0.053482
 Sum of Mulliken atomic charges =   0.00000

 Dipole moment (field-independent basis, Debye):
    X=             -1.5955    Y=              1.4679    Z=             -0.3376  Tot=              2.1942
 Quadrupole moment (field-independent basis, Debye-Ang):
   XX=            -39.4458   YY=            -39.9824   ZZ=            -37.2309
   XY=              2.2438   XZ=              0.0477   YZ=             -0.1512

 Normal termination of Gaussian 09 at Wed Jul 10 17:19:52 2013.
