 Gaussian 09, Revision A.02,
 Gaussian 09:  EM64L-G09RevA.02 11-Jun-2009

 ----------------------------------------------------------------------
 #P B3LYP/6-311++G** scf(conver=11) int=ultrafine polar=optrot cphf(rdf
 req,conver=11)
 ----------------------------------------------------------------------

 -----------------------------
 (R)-3-chloro-1-butene tau=120
 -----------------------------
 Symbolic Z-matrix:
 Charge =  0 Multiplicity = 1

                         Standard orientation:
 ---------------------------------------------------------------------
 Center     Atomic      Atomic             Coordinates (Angstroms)
 Number     Number       Type             X           Y           Z
 ---------------------------------------------------------------------
      1          6           0        0.472525    1.752585    0.039744
      2          6           0       -0.001630    0.354899   -0.329820
      3          6           0       -1.211615   -0.096157    0.432498
      4          6           0       -2.330745   -0.494669   -0.162703
      5          1           0       -2.436818   -0.559367   -1.240544
      6          1           0        1.368548    2.022205   -0.521328
      7          1           0       -3.188724   -0.776768    0.436802
      8          1           0       -1.125413   -0.056248    1.515703
      9          1           0       -0.061961    0.195527   -1.410500
     10          1           0        0.672773    1.853011    1.108644
     11          1           0       -0.320683    2.459121   -0.226778
     12         17           0        1.383592   -0.837496    0.027041
 ---------------------------------------------------------------------

 SCF Done:  E(RB3LYP) =  -616.894010705     A.U. after   18 cycles

 The electronic state is 1-A.
 Alpha  occ. eigenvalues -- -101.53020 -10.24858 -10.19559 -10.18429 -10.18211
 Alpha  occ. eigenvalues --   -9.44482  -7.20904  -7.19977  -7.19961  -0.86600
 Alpha  occ. eigenvalues --   -0.78632  -0.74231  -0.63894  -0.57919  -0.48391
 Alpha  occ. eigenvalues --   -0.47946  -0.44363  -0.41728  -0.40654  -0.37583
 Alpha  occ. eigenvalues --   -0.36395  -0.30426  -0.29570  -0.28041
 Alpha virt. eigenvalues --   -0.03278  -0.00773   0.00618   0.00678   0.02107
 Alpha virt. eigenvalues --    0.02762   0.03879   0.04072   0.06328   0.06512
 Alpha virt. eigenvalues --    0.07228   0.08297   0.08793   0.09848   0.11088

 Mulliken atomic charges:
              1
     1  C   -0.678649
     2  C    0.174600
     3  C    0.084250
     4  C   -0.613646
     5  H    0.130368
     6  H    0.153634
     7  H    0.131481
     8  H    0.168015
     9  H    0.224586
    10  H    0.158472
    11  H    0.135360
    12  Cl  -0.068472
 Sum of Mulliken atomic charges =   0.00000

 Dipole moment (field-independent basis, Debye):
    X=             -1.7699    Y=              1.6301    Z=             -0.3608  Tot=              2.4331
 Quadrupole moment (field-independent basis, Debye-Ang):
   XX=            -39.6284   YY=            -40.1367   ZZ=            -36.9257
   XY=              2.5072   XZ=             -0.0724   YZ=             -0.0358

 Normal termination of Gaussian 09 at Wed Jul 10 17:18:58 2013.
