 Gaussian 09, Revision A.02,
 Gaussian 09:  EM64L-G09RevA.02 11-Jun-2009

 ----------------------------------------------------------------------
 #P B3LYP/6-311++G** scf(conver=11) int=ultrafine polar=optrot cphf(rdf
 req,conver=11)
 ----------------------------------------------------------------------

 -----------------------------
 (R)-3-chloro-1-butene tau=120
 -----------------------------
 Symbolic Z-matrix:
 Charge =  0 Multiplicity = 1

                         Standard orientation:
 ---------------------------------------------------------------------
 Center     Atomic      Atomic             Coordinates (Angstroms)
 Number     Number       Type             X           Y           Z
 ---------------------------------------------------------------------
      1          6           0        0.470790    1.752233    0.037765
      2          6           0        0.015137    0.359916   -0.328928
      3          6           0       -1.198852   -0.090470    0.435726
      4          6           0       -2.338737   -0.495375   -0.150171
      5          1           0       -2.466456   -0.565322   -1.228006
      6          1           0        1.366282    2.002383   -0.534078
      7          1           0       -3.214513   -0.784976    0.421590
      8          1           0       -1.089923   -0.040544    1.517760
      9          1           0       -0.213472    0.182944   -1.384324
     10          1           0        0.694102    1.845392    1.102475
     11          1           0       -0.312765    2.463595   -0.240467
     12         17           0        1.385101   -0.838900    0.022276
 ---------------------------------------------------------------------

 SCF Done:  E(RB3LYP) =  -616.893758251     A.U. after   17 cycles

 The electronic state is 1-A.
 Alpha  occ. eigenvalues -- -101.53388 -10.24773 -10.19622 -10.18622 -10.18256
 Alpha  occ. eigenvalues --   -9.44834  -7.21265  -7.20326  -7.20311  -0.86767
 Alpha  occ. eigenvalues --   -0.78419  -0.74314  -0.64074  -0.57740  -0.48729
 Alpha  occ. eigenvalues --   -0.47139  -0.44569  -0.41998  -0.40499  -0.37618
 Alpha  occ. eigenvalues --   -0.36368  -0.30476  -0.29955  -0.27817
 Alpha virt. eigenvalues --   -0.03373  -0.00766   0.00576   0.00802   0.02096
 Alpha virt. eigenvalues --    0.02815   0.03871   0.04064   0.06420   0.06502
 Alpha virt. eigenvalues --    0.07246   0.08290   0.08752   0.09872   0.11034

 Mulliken atomic charges:
              1
     1  C   -0.687143
     2  C    0.173887
     3  C    0.101715
     4  C   -0.625136
     5  H    0.128235
     6  H    0.153358
     7  H    0.135013
     8  H    0.166212
     9  H    0.216678
    10  H    0.158844
    11  H    0.135059
    12  Cl  -0.056723
 Sum of Mulliken atomic charges =   0.00000

 Dipole moment (field-independent basis, Debye):
    X=             -1.6818    Y=              1.5964    Z=             -0.3352  Tot=              2.3429
 Quadrupole moment (field-independent basis, Debye-Ang):
   XX=            -39.4438   YY=            -40.0154   ZZ=            -37.1926
   XY=              2.4216   XZ=              0.3153   YZ=             -0.0123

 Normal termination of Gaussian 09 at Wed Jul 10 17:18:25 2013.
