 Gaussian 09, Revision A.02,
 Gaussian 09:  EM64L-G09RevA.02 11-Jun-2009

 ----------------------------------------------------------------------
 #P B3LYP/6-311++G** scf(conver=11) int=ultrafine polar=optrot cphf(rdf
 req,conver=11)
 ----------------------------------------------------------------------

 -----------------------------
 (R)-3-chloro-1-butene tau=120
 -----------------------------
 Symbolic Z-matrix:
 Charge =  0 Multiplicity = 1

                         Standard orientation:
 ---------------------------------------------------------------------
 Center     Atomic      Atomic             Coordinates (Angstroms)
 Number     Number       Type             X           Y           Z
 ---------------------------------------------------------------------
      1          6           0        0.469675    1.757870    0.040665
      2          6           0        0.006056    0.350518   -0.324264
      3          6           0       -1.205832   -0.095603    0.426885
      4          6           0       -2.332871   -0.496043   -0.155837
      5          1           0       -2.428555   -0.549603   -1.236015
      6          1           0        1.345566    2.013607   -0.490832
      7          1           0       -3.198913   -0.786583    0.427371
      8          1           0       -1.128459   -0.059954    1.511812
      9          1           0       -0.155300    0.258472   -1.398165
     10          1           0        0.669141    1.829748    1.071373
     11          1           0       -0.279423    2.436176   -0.200586
     12         17           0        1.385516   -0.837783    0.022961
 ---------------------------------------------------------------------

 SCF Done:  E(RB3LYP) =  -616.891854652     A.U. after   19 cycles

 The electronic state is 1-A.
 Alpha  occ. eigenvalues -- -101.53371 -10.24678 -10.19380 -10.18382 -10.16799
 Alpha  occ. eigenvalues --   -9.44813  -7.21246  -7.20306  -7.20289  -0.86751
 Alpha  occ. eigenvalues --   -0.78687  -0.74798  -0.64392  -0.57811  -0.48708
 Alpha  occ. eigenvalues --   -0.47730  -0.44990  -0.41716  -0.40733  -0.37844
 Alpha  occ. eigenvalues --   -0.36842  -0.30570  -0.29810  -0.28035
 Alpha virt. eigenvalues --   -0.03225  -0.00692   0.00698   0.00748   0.02285
 Alpha virt. eigenvalues --    0.02855   0.03917   0.04185   0.06442   0.06540
 Alpha virt. eigenvalues --    0.07340   0.08404   0.08828   0.09983   0.11140

 Mulliken atomic charges:
              1
     1  C   -0.645373
     2  C    0.154759
     3  C    0.097137
     4  C   -0.618807
     5  H    0.125334
     6  H    0.149712
     7  H    0.133162
     8  H    0.163565
     9  H    0.218797
    10  H    0.150503
    11  H    0.131988
    12  Cl  -0.060777
 Sum of Mulliken atomic charges =   0.00000

 Dipole moment (field-independent basis, Debye):
    X=             -1.7009    Y=              1.6152    Z=             -0.3229  Tot=              2.3677
 Quadrupole moment (field-independent basis, Debye-Ang):
   XX=            -39.3531   YY=            -39.8500   ZZ=            -37.0528
   XY=              2.3815   XZ=              0.0514   YZ=             -0.1787

 Normal termination of Gaussian 09 at Wed Jul 10 17:28:34 2013.
