 Gaussian 09, Revision A.02,
 Gaussian 09:  EM64L-G09RevA.02 11-Jun-2009

 ----------------------------------------------------------------------
 #P B3LYP/6-311++G** scf(conver=11) int=ultrafine polar=optrot cphf(rdf
 req,conver=11)
 ----------------------------------------------------------------------

 -----------------------------
 (R)-3-chloro-1-butene tau=120
 -----------------------------
 Symbolic Z-matrix:
 Charge =  0 Multiplicity = 1

                         Standard orientation:
 ---------------------------------------------------------------------
 Center     Atomic      Atomic             Coordinates (Angstroms)
 Number     Number       Type             X           Y           Z
 ---------------------------------------------------------------------
      1          6           0        0.470356    1.755339    0.029820
      2          6           0        0.005418    0.349329   -0.328057
      3          6           0       -1.204818   -0.097145    0.428211
      4          6           0       -2.331400   -0.500480   -0.153458
      5          1           0       -2.428587   -0.556699   -1.239258
      6          1           0        1.327460    2.009609   -0.488610
      7          1           0       -3.200948   -0.792830    0.433817
      8          1           0       -1.127654   -0.059842    1.500723
      9          1           0       -0.153051    0.257711   -1.373788
     10          1           0        0.683728    1.837431    1.145970
     11          1           0       -0.323116    2.470682   -0.220201
     12         17           0        1.387343   -0.835784    0.022485
 ---------------------------------------------------------------------

 SCF Done:  E(RB3LYP) =  -616.891697634     A.U. after   20 cycles

 The electronic state is 1-A.
 Alpha  occ. eigenvalues -- -101.53405 -10.24499 -10.19269 -10.18486 -10.18030
 Alpha  occ. eigenvalues --   -9.44848  -7.21281  -7.20340  -7.20324  -0.86816
 Alpha  occ. eigenvalues --   -0.78693  -0.74321  -0.64151  -0.58042  -0.48554
 Alpha  occ. eigenvalues --   -0.47732  -0.44660  -0.41728  -0.40302  -0.37437
 Alpha  occ. eigenvalues --   -0.36825  -0.30630  -0.29879  -0.28046
 Alpha virt. eigenvalues --   -0.03217  -0.00763   0.00628   0.00803   0.02153
 Alpha virt. eigenvalues --    0.02842   0.03891   0.04077   0.06390   0.06491
 Alpha virt. eigenvalues --    0.07337   0.08310   0.08769   0.09891   0.11111

 Mulliken atomic charges:
              1
     1  C   -0.669541
     2  C    0.162064
     3  C    0.100639
     4  C   -0.621492
     5  H    0.125092
     6  H    0.157001
     7  H    0.133219
     8  H    0.164482
     9  H    0.223358
    10  H    0.149438
    11  H    0.134274
    12  Cl  -0.058533
 Sum of Mulliken atomic charges =   0.00000

 Dipole moment (field-independent basis, Debye):
    X=             -1.6875    Y=              1.5783    Z=             -0.3691  Tot=              2.3398
 Quadrupole moment (field-independent basis, Debye-Ang):
   XX=            -39.4255   YY=            -40.0278   ZZ=            -37.0985
   XY=              2.3859   XZ=              0.0355   YZ=             -0.2825

 Normal termination of Gaussian 09 at Wed Jul 10 17:28:55 2013.
