 Gaussian 09, Revision A.02,
 Gaussian 09:  EM64L-G09RevA.02 11-Jun-2009

 ----------------------------------------------------------------------
 #P B3LYP/6-311++G** scf(conver=11) int=ultrafine polar=optrot cphf(rdf
 req,conver=11)
 ----------------------------------------------------------------------

 -----------------------------
 (R)-3-chloro-1-butene tau=120
 -----------------------------
 Symbolic Z-matrix:
 Charge =  0 Multiplicity = 1

                         Standard orientation:
 ---------------------------------------------------------------------
 Center     Atomic      Atomic             Coordinates (Angstroms)
 Number     Number       Type             X           Y           Z
 ---------------------------------------------------------------------
      1          6           0        0.476831    1.747376    0.034300
      2          6           0       -0.000421    0.344674   -0.315192
      3          6           0       -1.214308   -0.095081    0.437246
      4          6           0       -2.334115   -0.493311   -0.162378
      5          1           0       -2.408703   -0.552152   -1.244251
      6          1           0        1.268911    2.072719   -0.671032
      7          1           0       -3.213353   -0.776505    0.404914
      8          1           0       -1.151052   -0.051383    1.521988
      9          1           0       -0.173580    0.248428   -1.386612
     10          1           0        0.884257    1.776367    1.067893
     11          1           0       -0.382759    2.449320   -0.033041
     12         17           0        1.388727   -0.834632    0.022134
 ---------------------------------------------------------------------

 SCF Done:  E(RB3LYP) =  -616.894579250     A.U. after   18 cycles

 The electronic state is 1-A.
 Alpha  occ. eigenvalues -- -101.53407 -10.24733 -10.19441 -10.18640 -10.18455
 Alpha  occ. eigenvalues --   -9.44851  -7.21285  -7.20343  -7.20325  -0.86741
 Alpha  occ. eigenvalues --   -0.78757  -0.73982  -0.63780  -0.57770  -0.48536
 Alpha  occ. eigenvalues --   -0.47542  -0.44395  -0.41531  -0.40224  -0.37338
 Alpha  occ. eigenvalues --   -0.36637  -0.30577  -0.29835  -0.28109
 Alpha virt. eigenvalues --   -0.03284  -0.00780   0.00612   0.00717   0.02053
 Alpha virt. eigenvalues --    0.02826   0.03878   0.03976   0.06159   0.06752
 Alpha virt. eigenvalues --    0.07241   0.08397   0.08675   0.09827   0.11202

 Mulliken atomic charges:
              1
     1  C   -0.668267
     2  C    0.148292
     3  C    0.115649
     4  C   -0.627400
     5  H    0.126195
     6  H    0.157057
     7  H    0.133749
     8  H    0.173392
     9  H    0.211527
    10  H    0.150600
    11  H    0.135851
    12  Cl  -0.056645
 Sum of Mulliken atomic charges =   0.00000

 Dipole moment (field-independent basis, Debye):
    X=             -1.7255    Y=              1.5484    Z=             -0.3154  Tot=              2.3398
 Quadrupole moment (field-independent basis, Debye-Ang):
   XX=            -39.3806   YY=            -40.2436   ZZ=            -37.1475
   XY=              2.3182   XZ=              0.0517   YZ=             -0.1493

 Normal termination of Gaussian 09 at Wed Jul 10 17:28:38 2013.
