 Gaussian 09, Revision A.02,
 Gaussian 09:  EM64L-G09RevA.02 11-Jun-2009

 ----------------------------------------------------------------------
 #P B3LYP/6-311++G** scf(conver=11) int=ultrafine polar=optrot cphf(rdf
 req,conver=11)
 ----------------------------------------------------------------------

 -----------------------------
 (R)-3-chloro-1-butene tau=120
 -----------------------------
 Symbolic Z-matrix:
 Charge =  0 Multiplicity = 1

                         Standard orientation:
 ---------------------------------------------------------------------
 Center     Atomic      Atomic             Coordinates (Angstroms)
 Number     Number       Type             X           Y           Z
 ---------------------------------------------------------------------
      1          6           0        0.465997    1.768871    0.041208
      2          6           0       -0.015211    0.361363   -0.336514
      3          6           0       -1.194661   -0.130722    0.430412
      4          6           0       -2.330956   -0.500650   -0.155340
      5          1           0       -2.391882   -0.614649   -1.235514
      6          1           0        1.380228    2.007338   -0.505886
      7          1           0       -3.238081   -0.693292    0.415643
      8          1           0       -1.129972   -0.030672    1.512927
      9          1           0       -0.178543    0.268724   -1.409598
     10          1           0        0.684211    1.823958    1.110194
     11          1           0       -0.294961    2.518362   -0.201213
     12         17           0        1.389293   -0.839585    0.025579
 ---------------------------------------------------------------------

 SCF Done:  E(RB3LYP) =  -616.894091252     A.U. after   19 cycles

 The electronic state is 1-A.
 Alpha  occ. eigenvalues -- -101.53135 -10.25053 -10.19520 -10.18567 -10.18412
 Alpha  occ. eigenvalues --   -9.44552  -7.20981  -7.20049  -7.20033  -0.86313
 Alpha  occ. eigenvalues --   -0.78587  -0.74150  -0.64134  -0.57852  -0.48512
 Alpha  occ. eigenvalues --   -0.47533  -0.44450  -0.41496  -0.40332  -0.37638
 Alpha  occ. eigenvalues --   -0.36663  -0.30657  -0.29764  -0.27804
 Alpha virt. eigenvalues --   -0.03493  -0.00828   0.00521   0.00695   0.01747
 Alpha virt. eigenvalues --    0.02821   0.03881   0.04080   0.06287   0.06483
 Alpha virt. eigenvalues --    0.07290   0.08240   0.08718   0.09768   0.10928

 Mulliken atomic charges:
              1
     1  C   -0.688827
     2  C    0.197358
     3  C    0.090488
     4  C   -0.615268
     5  H    0.124754
     6  H    0.152401
     7  H    0.134488
     8  H    0.160165
     9  H    0.227198
    10  H    0.158124
    11  H    0.137824
    12  Cl  -0.078706
 Sum of Mulliken atomic charges =   0.00000

 Dipole moment (field-independent basis, Debye):
    X=             -1.8318    Y=              1.7450    Z=             -0.3376  Tot=              2.5524
 Quadrupole moment (field-independent basis, Debye-Ang):
   XX=            -39.4010   YY=            -40.0634   ZZ=            -37.1421
   XY=              2.2626   XZ=              0.0261   YZ=             -0.0327

 Normal termination of Gaussian 09 at Wed Jul 10 17:48:25 2013.
