 Gaussian 09, Revision A.02,
 Gaussian 09:  EM64L-G09RevA.02 11-Jun-2009

 ----------------------------------------------------------------------
 #P B3LYP/6-311++G** scf(conver=11) int=ultrafine polar=optrot cphf(rdf
 req,conver=11)
 ----------------------------------------------------------------------

 -----------------------------
 (R)-3-chloro-1-butene tau=120
 -----------------------------
 Symbolic Z-matrix:
 Charge =  0 Multiplicity = 1

                         Standard orientation:
 ---------------------------------------------------------------------
 Center     Atomic      Atomic             Coordinates (Angstroms)
 Number     Number       Type             X           Y           Z
 ---------------------------------------------------------------------
      1          6           0        0.327877    1.805588    0.018092
      2          6           0       -0.002072    0.347198   -0.280636
      3          6           0       -1.193975   -0.143355    0.468829
      4          6           0       -2.261499   -0.598029   -0.184372
      5          1           0       -2.261162   -0.665710   -1.271769
      6          1           0        1.204067    2.141921   -0.539581
      7          1           0       -3.164725   -0.919525    0.327734
      8          1           0       -1.169804   -0.077375    1.554612
      9          1           0       -0.177512    0.223203   -1.348673
     10          1           0        0.504717    1.976274    1.085437
     11          1           0       -0.534544    2.411830   -0.291194
     12         17           0        1.433940   -0.797590    0.020703
 ---------------------------------------------------------------------

 SCF Done:  E(RB3LYP) =  -616.894215446     A.U. after   19 cycles

 The electronic state is 1-A.
 Alpha  occ. eigenvalues -- -101.53413 -10.24679 -10.19424 -10.18485 -10.18329
 Alpha  occ. eigenvalues --   -9.44830  -7.21267  -7.20322  -7.20310  -0.86557
 Alpha  occ. eigenvalues --   -0.78816  -0.74281  -0.63755  -0.57882  -0.48515
 Alpha  occ. eigenvalues --   -0.47398  -0.44554  -0.41530  -0.40389  -0.37678
 Alpha  occ. eigenvalues --   -0.36619  -0.30530  -0.29807  -0.28070
 Alpha virt. eigenvalues --   -0.03312  -0.00823   0.00618   0.00698   0.02057
 Alpha virt. eigenvalues --    0.02846   0.03850   0.04190   0.06323   0.06378
 Alpha virt. eigenvalues --    0.07239   0.08375   0.08742   0.09803   0.11108

 Mulliken atomic charges:
              1
     1  C   -0.678601
     2  C    0.111992
     3  C    0.161546
     4  C   -0.646131
     5  H    0.126995
     6  H    0.154341
     7  H    0.135042
     8  H    0.173448
     9  H    0.200608
    10  H    0.155204
    11  H    0.140021
    12  Cl  -0.034464
 Sum of Mulliken atomic charges =   0.00000

 Dipole moment (field-independent basis, Debye):
    X=             -1.8521    Y=              1.5506    Z=             -0.3110  Tot=              2.4354
 Quadrupole moment (field-independent basis, Debye-Ang):
   XX=            -39.7817   YY=            -39.7379   ZZ=            -37.1676
   XY=              2.2762   XZ=             -0.0238   YZ=             -0.0440

 Normal termination of Gaussian 09 at Wed Jul 10 17:48:15 2013.
