 Gaussian 09, Revision A.02,
 Gaussian 09:  EM64L-G09RevA.02 11-Jun-2009

 ----------------------------------------------------------------------
 #P B3LYP/6-311++G** scf(conver=11) int=ultrafine polar=optrot cphf(rdf
 req,conver=11)
 ----------------------------------------------------------------------

 -----------------------------
 (R)-3-chloro-1-butene tau=120
 -----------------------------
 Symbolic Z-matrix:
 Charge =  0 Multiplicity = 1

                         Standard orientation:
 ---------------------------------------------------------------------
 Center     Atomic      Atomic             Coordinates (Angstroms)
 Number     Number       Type             X           Y           Z
 ---------------------------------------------------------------------
      1          6           0        0.466957    1.754261    0.038737
      2          6           0        0.005477    0.349918   -0.328554
      3          6           0       -1.206581   -0.093926    0.427122
      4          6           0       -2.334208   -0.492489   -0.156252
      5          1           0       -2.430102   -0.546005   -1.238819
      6          1           0        1.408115    2.027809   -0.528882
      7          1           0       -3.202498   -0.782142    0.428100
      8          1           0       -1.130074   -0.058822    1.501991
      9          1           0       -0.149404    0.262488   -1.354421
     10          1           0        0.681667    1.831809    1.128668
     11          1           0       -0.286894    2.444917   -0.204569
     12         17           0        1.383490   -0.840391    0.022448
 ---------------------------------------------------------------------

 SCF Done:  E(RB3LYP) =  -616.891741863     A.U. after   19 cycles

 The electronic state is 1-A.
 Alpha  occ. eigenvalues -- -101.53373 -10.24314 -10.19321 -10.18458 -10.18281
 Alpha  occ. eigenvalues --   -9.44815  -7.21249  -7.20308  -7.20290  -0.86843
 Alpha  occ. eigenvalues --   -0.78721  -0.74236  -0.64072  -0.58282  -0.48714
 Alpha  occ. eigenvalues --   -0.47683  -0.44549  -0.41736  -0.40025  -0.37827
 Alpha  occ. eigenvalues --   -0.36571  -0.30626  -0.29881  -0.28049
 Alpha virt. eigenvalues --   -0.03304  -0.00753   0.00627   0.00833   0.02185
 Alpha virt. eigenvalues --    0.02832   0.03846   0.04128   0.06394   0.06516
 Alpha virt. eigenvalues --    0.07222   0.08331   0.08771   0.09922   0.11105

 Mulliken atomic charges:
              1
     1  C   -0.682541
     2  C    0.183851
     3  C    0.082537
     4  C   -0.613920
     5  H    0.125766
     6  H    0.149142
     7  H    0.132919
     8  H    0.163784
     9  H    0.226450
    10  H    0.154439
    11  H    0.139828
    12  Cl  -0.062254
 Sum of Mulliken atomic charges =   0.00000

 Dipole moment (field-independent basis, Debye):
    X=             -1.7384    Y=              1.5821    Z=             -0.3459  Tot=              2.3758
 Quadrupole moment (field-independent basis, Debye-Ang):
   XX=            -39.4296   YY=            -40.0584   ZZ=            -37.0933
   XY=              2.2969   XZ=              0.0460   YZ=             -0.2192

 Normal termination of Gaussian 09 at Wed Jul 10 17:28:32 2013.
