 Gaussian 09, Revision A.02,
 Gaussian 09:  EM64L-G09RevA.02 11-Jun-2009

 ----------------------------------------------------------------------
 #P B3LYP/6-311++G** scf(conver=11) int=ultrafine polar=optrot cphf(rdf
 req,conver=11)
 ----------------------------------------------------------------------

 -----------------------------
 (R)-3-chloro-1-butene tau=120
 -----------------------------
 Symbolic Z-matrix:
 Charge =  0 Multiplicity = 1

                         Standard orientation:
 ---------------------------------------------------------------------
 Center     Atomic      Atomic             Coordinates (Angstroms)
 Number     Number       Type             X           Y           Z
 ---------------------------------------------------------------------
      1          6           0        0.466011    1.755208    0.040072
      2          6           0        0.011682    0.353873   -0.323813
      3          6           0       -1.242688   -0.112725    0.415301
      4          6           0       -2.299121   -0.490949   -0.140391
      5          1           0       -2.467387   -0.570273   -1.208434
      6          1           0        1.369405    2.022195   -0.510489
      7          1           0       -3.195993   -0.794378    0.382575
      8          1           0       -1.095096   -0.050875    1.488964
      9          1           0       -0.173201    0.250441   -1.393423
     10          1           0        0.670377    1.831430    1.110604
     11          1           0       -0.324400    2.468931   -0.212252
     12         17           0        1.388294   -0.834701    0.023261
 ---------------------------------------------------------------------

 SCF Done:  E(RB3LYP) =  -616.886021195     A.U. after   20 cycles

 The electronic state is 1-A.
 Alpha  occ. eigenvalues -- -101.53445 -10.24659 -10.18513 -10.18121 -10.17266
 Alpha  occ. eigenvalues --   -9.44879  -7.21314  -7.20371  -7.20357  -0.86657
 Alpha  occ. eigenvalues --   -0.79722  -0.74534  -0.63755  -0.57706  -0.49395
 Alpha  occ. eigenvalues --   -0.47427  -0.44699  -0.42156  -0.40213  -0.37574
 Alpha  occ. eigenvalues --   -0.35297  -0.30865  -0.29879  -0.28952
 Alpha virt. eigenvalues --   -0.02168  -0.00722   0.00633   0.00800   0.02417
 Alpha virt. eigenvalues --    0.02821   0.03919   0.04102   0.06429   0.06548
 Alpha virt. eigenvalues --    0.07270   0.08390   0.08940   0.09965   0.11111

 Mulliken atomic charges:
              1
     1  C   -0.681695
     2  C    0.175661
     3  C    0.192258
     4  C   -0.704494
     5  H    0.126335
     6  H    0.153731
     7  H    0.133020
     8  H    0.160637
     9  H    0.216158
    10  H    0.155463
    11  H    0.133654
    12  Cl  -0.060728
 Sum of Mulliken atomic charges =   0.00000

 Dipole moment (field-independent basis, Debye):
    X=             -1.7487    Y=              1.5597    Z=             -0.3545  Tot=              2.3699
 Quadrupole moment (field-independent basis, Debye-Ang):
   XX=            -39.0453   YY=            -39.7449   ZZ=            -37.3460
   XY=              2.3307   XZ=              0.3394   YZ=             -0.0927

 Normal termination of Gaussian 09 at Wed Jul 10 17:28:40 2013.
