 Gaussian 09, Revision A.02,
 Gaussian 09:  EM64L-G09RevA.02 11-Jun-2009

 ----------------------------------------------------------------------
 #P B3LYP/6-311++G** scf(conver=11) int=ultrafine polar=optrot cphf(rdf
 req,conver=11)
 ----------------------------------------------------------------------

 -----------------------------
 (R)-3-chloro-1-butene tau=120
 -----------------------------
 Symbolic Z-matrix:
 Charge =  0 Multiplicity = 1

                         Standard orientation:
 ---------------------------------------------------------------------
 Center     Atomic      Atomic             Coordinates (Angstroms)
 Number     Number       Type             X           Y           Z
 ---------------------------------------------------------------------
      1          6           0        0.459447    1.760913    0.046494
      2          6           0        0.012068    0.355736   -0.333300
      3          6           0       -1.197042   -0.099522    0.416331
      4          6           0       -2.330704   -0.504056   -0.150004
      5          1           0       -2.447150   -0.551986   -1.228548
      6          1           0        1.475471    1.971969   -0.344376
      7          1           0       -3.183136   -0.803829    0.448888
      8          1           0       -1.106097   -0.072541    1.499869
      9          1           0       -0.137279    0.267932   -1.408875
     10          1           0        0.465013    1.886185    1.151212
     11          1           0       -0.256789    2.490050   -0.391762
     12         17           0        1.383962   -0.839188    0.023321
 ---------------------------------------------------------------------

 SCF Done:  E(RB3LYP) =  -616.894595351     A.U. after   19 cycles

 The electronic state is 1-A.
 Alpha  occ. eigenvalues -- -101.53425 -10.24793 -10.19392 -10.18715 -10.18377
 Alpha  occ. eigenvalues --   -9.44870  -7.21304  -7.20361  -7.20346  -0.86766
 Alpha  occ. eigenvalues --   -0.78671  -0.74078  -0.63821  -0.57771  -0.48486
 Alpha  occ. eigenvalues --   -0.47587  -0.44392  -0.41598  -0.40084  -0.37525
 Alpha  occ. eigenvalues --   -0.36587  -0.30644  -0.29885  -0.27999
 Alpha virt. eigenvalues --   -0.03298  -0.00804   0.00599   0.00696   0.02259
 Alpha virt. eigenvalues --    0.02835   0.03809   0.04149   0.05968   0.06670
 Alpha virt. eigenvalues --    0.07315   0.08132   0.08681   0.09800   0.10910

 Mulliken atomic charges:
              1
     1  C   -0.706572
     2  C    0.221964
     3  C    0.079111
     4  C   -0.633640
     5  H    0.124737
     6  H    0.151135
     7  H    0.132083
     8  H    0.160212
     9  H    0.233662
    10  H    0.160589
    11  H    0.136598
    12  Cl  -0.059878
 Sum of Mulliken atomic charges =   0.00000

 Dipole moment (field-independent basis, Debye):
    X=             -1.6836    Y=              1.5556    Z=             -0.3497  Tot=              2.3188
 Quadrupole moment (field-independent basis, Debye-Ang):
   XX=            -39.4700   YY=            -40.1478   ZZ=            -37.1638
   XY=              2.3658   XZ=              0.0470   YZ=             -0.2673

 Normal termination of Gaussian 09 at Wed Jul 10 17:28:24 2013.
