 Gaussian 09, Revision A.02,
 Gaussian 09:  EM64L-G09RevA.02 11-Jun-2009

 ----------------------------------------------------------------------
 #P B3LYP/6-311++G** scf(conver=11) int=ultrafine polar=optrot cphf(rdf
 req,conver=11)
 ----------------------------------------------------------------------

 -----------------------------
 (R)-3-chloro-1-butene tau=120
 -----------------------------
 Symbolic Z-matrix:
 Charge =  0 Multiplicity = 1

                         Standard orientation:
 ---------------------------------------------------------------------
 Center     Atomic      Atomic             Coordinates (Angstroms)
 Number     Number       Type             X           Y           Z
 ---------------------------------------------------------------------
      1          6           0        0.439692    1.742074    0.044836
      2          6           0       -0.015706    0.361151   -0.306532
      3          6           0       -1.191617   -0.105017    0.413558
      4          6           0       -2.314424   -0.516951   -0.157206
      5          1           0       -2.469458   -0.589134   -1.230167
      6          1           0        1.332963    1.961129   -0.546526
      7          1           0       -3.142475   -0.801087    0.485014
      8          1           0       -1.130116   -0.069553    1.498226
      9          1           0       -0.169047    0.287650   -1.382491
     10          1           0        0.679831    1.866300    1.103817
     11          1           0       -0.336808    2.462118   -0.233774
     12         17           0        1.395731   -0.823821    0.019880
 ---------------------------------------------------------------------

 SCF Done:  E(RB3LYP) =  -616.893657141     A.U. after   20 cycles

 The electronic state is 1-A.
 Alpha  occ. eigenvalues -- -101.53252 -10.24396 -10.19067 -10.18403 -10.18038
 Alpha  occ. eigenvalues --   -9.44682  -7.21113  -7.20178  -7.20161  -0.87043
 Alpha  occ. eigenvalues --   -0.78897  -0.74643  -0.64353  -0.57790  -0.48687
 Alpha  occ. eigenvalues --   -0.48155  -0.44691  -0.41696  -0.40452  -0.37325
 Alpha  occ. eigenvalues --   -0.36557  -0.30649  -0.29832  -0.28071
 Alpha virt. eigenvalues --   -0.03628  -0.00797   0.00624   0.00682   0.02240
 Alpha virt. eigenvalues --    0.02876   0.03955   0.03967   0.06358   0.06587
 Alpha virt. eigenvalues --    0.07194   0.08414   0.08759   0.09824   0.11124

 Mulliken atomic charges:
              1
     1  C   -0.683114
     2  C    0.181892
     3  C    0.093758
     4  C   -0.619970
     5  H    0.129902
     6  H    0.153371
     7  H    0.128589
     8  H    0.163110
     9  H    0.225512
    10  H    0.154955
    11  H    0.135969
    12  Cl  -0.063974
 Sum of Mulliken atomic charges =   0.00000

 Dipole moment (field-independent basis, Debye):
    X=             -1.7974    Y=              1.6157    Z=             -0.3337  Tot=              2.4397
 Quadrupole moment (field-independent basis, Debye-Ang):
   XX=            -39.5585   YY=            -40.0095   ZZ=            -37.0487
   XY=              2.3114   XZ=              0.1086   YZ=             -0.1843

 Normal termination of Gaussian 09 at Wed Jul 10 17:48:45 2013.
