 Gaussian 09, Revision A.02,
 Gaussian 09:  EM64L-G09RevA.02 11-Jun-2009

 ----------------------------------------------------------------------
 #P B3LYP/6-311++G** scf(conver=11) int=ultrafine polar=optrot cphf(rdf
 req,conver=11)
 ----------------------------------------------------------------------

 -----------------------------
 (R)-3-chloro-1-butene tau=120
 -----------------------------
 Symbolic Z-matrix:
 Charge =  0 Multiplicity = 1

                         Standard orientation:
 ---------------------------------------------------------------------
 Center     Atomic      Atomic             Coordinates (Angstroms)
 Number     Number       Type             X           Y           Z
 ---------------------------------------------------------------------
      1          6           0        0.471949    1.752674    0.039744
      2          6           0        0.000195    0.346369   -0.324906
      3          6           0       -1.168692   -0.080689    0.438422
      4          6           0       -2.366172   -0.504200   -0.171441
      5          1           0       -2.388994   -0.532413   -1.263642
      6          1           0        1.377632    2.020653   -0.506820
      7          1           0       -3.201040   -0.782775    0.471959
      8          1           0       -1.162049   -0.071070    1.532918
      9          1           0       -0.137600    0.265191   -1.402278
     10          1           0        0.681081    1.831489    1.108625
     11          1           0       -0.313862    2.470553   -0.214237
     12         17           0        1.383597   -0.840386    0.022503
 ---------------------------------------------------------------------

 SCF Done:  E(RB3LYP) =  -616.887828352     A.U. after   20 cycles

 The electronic state is 1-A.
 Alpha  occ. eigenvalues -- -101.53377 -10.24819 -10.20220 -10.19525 -10.18153
 Alpha  occ. eigenvalues --   -9.44828  -7.21260  -7.20320  -7.20301  -0.86931
 Alpha  occ. eigenvalues --   -0.77969  -0.73795  -0.64205  -0.57841  -0.48346
 Alpha  occ. eigenvalues --   -0.47531  -0.44422  -0.41344  -0.40066  -0.38091
 Alpha  occ. eigenvalues --   -0.36996  -0.30586  -0.29822  -0.27005
 Alpha virt. eigenvalues --   -0.04436  -0.00793   0.00560   0.00643   0.02049
 Alpha virt. eigenvalues --    0.02854   0.03810   0.04108   0.06317   0.06374
 Alpha virt. eigenvalues --    0.07274   0.08198   0.08553   0.09801   0.11028

 Mulliken atomic charges:
              1
     1  C   -0.672880
     2  C    0.170327
     3  C    0.020590
     4  C   -0.563343
     5  H    0.125141
     6  H    0.154226
     7  H    0.135709
     8  H    0.170873
     9  H    0.226533
    10  H    0.156253
    11  H    0.136448
    12  Cl  -0.059877
 Sum of Mulliken atomic charges =   0.00000

 Dipole moment (field-independent basis, Debye):
    X=             -1.6550    Y=              1.5889    Z=             -0.2992  Tot=              2.3136
 Quadrupole moment (field-independent basis, Debye-Ang):
   XX=            -39.7597   YY=            -40.3594   ZZ=            -36.9521
   XY=              2.3997   XZ=             -0.2559   YZ=             -0.2909

 Normal termination of Gaussian 09 at Wed Jul 10 17:29:02 2013.
