 Gaussian 09, Revision A.02,
 Gaussian 09:  EM64L-G09RevA.02 11-Jun-2009

 ----------------------------------------------------------------------
 #P B3LYP/6-311++G** scf(conver=11) int=ultrafine polar=optrot cphf(rdf
 req,conver=11)
 ----------------------------------------------------------------------

 -----------------------------
 (R)-3-chloro-1-butene tau=120
 -----------------------------
 Symbolic Z-matrix:
 Charge =  0 Multiplicity = 1

                         Standard orientation:
 ---------------------------------------------------------------------
 Center     Atomic      Atomic             Coordinates (Angstroms)
 Number     Number       Type             X           Y           Z
 ---------------------------------------------------------------------
      1          6           0        0.468748    1.754586    0.047993
      2          6           0        0.008830    0.355924   -0.328593
      3          6           0       -1.204444   -0.096718    0.414108
      4          6           0       -2.328456   -0.497272   -0.151763
      5          1           0       -2.385213   -0.539317   -1.235668
      6          1           0        1.366647    2.015443   -0.514713
      7          1           0       -3.203809   -0.790497    0.414231
      8          1           0       -1.217285   -0.095752    1.504657
      9          1           0       -0.162737    0.217444   -1.396926
     10          1           0        0.674800    1.839094    1.116508
     11          1           0       -0.319544    2.463620   -0.223691
     12         17           0        1.387005   -0.835832    0.026184
 ---------------------------------------------------------------------

 SCF Done:  E(RB3LYP) =  -616.893846139     A.U. after   19 cycles

 The electronic state is 1-A.
 Alpha  occ. eigenvalues -- -101.53357 -10.24969 -10.19116 -10.18244 -10.18102
 Alpha  occ. eigenvalues --   -9.44802  -7.21236  -7.20292  -7.20279  -0.86797
 Alpha  occ. eigenvalues --   -0.78881  -0.74385  -0.64023  -0.57558  -0.48680
 Alpha  occ. eigenvalues --   -0.47751  -0.44594  -0.41800  -0.40084  -0.37447
 Alpha  occ. eigenvalues --   -0.36732  -0.30601  -0.29879  -0.28118
 Alpha virt. eigenvalues --   -0.03112  -0.00750   0.00633   0.00690   0.02275
 Alpha virt. eigenvalues --    0.02821   0.03852   0.04136   0.06379   0.06424
 Alpha virt. eigenvalues --    0.07264   0.08320   0.08711   0.09847   0.11096

 Mulliken atomic charges:
              1
     1  C   -0.678543
     2  C    0.163053
     3  C    0.096636
     4  C   -0.601259
     5  H    0.117036
     6  H    0.153155
     7  H    0.132726
     8  H    0.162299
     9  H    0.221537
    10  H    0.159103
    11  H    0.134725
    12  Cl  -0.060468
 Sum of Mulliken atomic charges =   0.00000

 Dipole moment (field-independent basis, Debye):
    X=             -1.7048    Y=              1.5909    Z=             -0.3159  Tot=              2.3532
 Quadrupole moment (field-independent basis, Debye-Ang):
   XX=            -39.4333   YY=            -39.9814   ZZ=            -37.1774
   XY=              2.3911   XZ=             -0.1768   YZ=             -0.2045

 Normal termination of Gaussian 09 at Wed Jul 10 17:19:58 2013.
