 Gaussian 09, Revision A.02,
 Gaussian 09:  EM64L-G09RevA.02 11-Jun-2009

 ----------------------------------------------------------------------
 #P B3LYP/6-311++G** scf(conver=11) int=ultrafine polar=optrot cphf(rdf
 req,conver=11)
 ----------------------------------------------------------------------

 -----------------------------
 (R)-3-chloro-1-butene tau=120
 -----------------------------
 Symbolic Z-matrix:
 Charge =  0 Multiplicity = 1

                         Standard orientation:
 ---------------------------------------------------------------------
 Center     Atomic      Atomic             Coordinates (Angstroms)
 Number     Number       Type             X           Y           Z
 ---------------------------------------------------------------------
      1          6           0        0.468909    1.771393    0.046706
      2          6           0        0.004250    0.350431   -0.323546
      3          6           0       -1.205125   -0.098764    0.427803
      4          6           0       -2.330780   -0.501777   -0.157314
      5          1           0       -2.429123   -0.553469   -1.237273
      6          1           0        1.376836    1.972453   -0.526393
      7          1           0       -3.195491   -0.796701    0.425786
      8          1           0       -1.126139   -0.063826    1.512033
      9          1           0       -0.150750    0.267453   -1.399006
     10          1           0        0.663146    1.773205    1.122909
     11          1           0       -0.366606    2.424196   -0.229508
     12         17           0        1.388506   -0.832412    0.021739
 ---------------------------------------------------------------------

 SCF Done:  E(RB3LYP) =  -616.893811881     A.U. after   19 cycles

 The electronic state is 1-A.
 Alpha  occ. eigenvalues -- -101.53400 -10.24639 -10.19411 -10.18423 -10.18353
 Alpha  occ. eigenvalues --   -9.44843  -7.21273  -7.20337  -7.20321  -0.86701
 Alpha  occ. eigenvalues --   -0.78705  -0.74169  -0.63800  -0.57747  -0.48422
 Alpha  occ. eigenvalues --   -0.47731  -0.44840  -0.41003  -0.40435  -0.37753
 Alpha  occ. eigenvalues --   -0.36813  -0.30591  -0.29765  -0.28048
 Alpha virt. eigenvalues --   -0.03260  -0.00768   0.00697   0.00703   0.02211
 Alpha virt. eigenvalues --    0.02848   0.03866   0.04123   0.06332   0.06449
 Alpha virt. eigenvalues --    0.07216   0.08261   0.08690   0.09800   0.11123

 Mulliken atomic charges:
              1
     1  C   -0.626351
     2  C    0.146437
     3  C    0.089619
     4  C   -0.624201
     5  H    0.126033
     6  H    0.149536
     7  H    0.133604
     8  H    0.166600
     9  H    0.222683
    10  H    0.149989
    11  H    0.129450
    12  Cl  -0.063401
 Sum of Mulliken atomic charges =   0.00000

 Dipole moment (field-independent basis, Debye):
    X=             -1.7246    Y=              1.5159    Z=             -0.3457  Tot=              2.3220
 Quadrupole moment (field-independent basis, Debye-Ang):
   XX=            -39.3950   YY=            -40.4826   ZZ=            -37.0797
   XY=              2.2320   XZ=              0.0342   YZ=             -0.3060

 Normal termination of Gaussian 09 at Wed Jul 10 17:19:49 2013.
